s 0.000000000 _12_ AGT  --- 0 tcp 40 [0 0 0 0] ------- [12:0 19:0 32 0] [0 0] 0 0
r 0.000000000 _12_ RTR  --- 0 tcp 40 [0 0 0 0] ------- [12:0 19:0 32 0] [0 0] 0 0
s 0.000000000 _12_ RTR  --- 0 AODV 48 [0 0 0 0] ------- [12:255 -1:255 30 0] [0x2 1 1 [19 0] [12 4]] (REQUEST)
s 0.000115000 _12_ MAC  --- 0 AODV 106 [0 ffffffff c 800] ------- [12:255 -1:255 30 0] [0x2 1 1 [19 0] [12 4]] (REQUEST)
r 0.000963135 _8_ MAC  --- 0 AODV 48 [0 ffffffff c 800] ------- [12:255 -1:255 30 0] [0x2 1 1 [19 0] [12 4]] (REQUEST)
r 0.000963360 _13_ MAC  --- 0 AODV 48 [0 ffffffff c 800] ------- [12:255 -1:255 30 0] [0x2 1 1 [19 0] [12 4]] (REQUEST)
r 0.000963420 _2_ MAC  --- 0 AODV 48 [0 ffffffff c 800] ------- [12:255 -1:255 30 0] [0x2 1 1 [19 0] [12 4]] (REQUEST)
r 0.000963576 _11_ MAC  --- 0 AODV 48 [0 ffffffff c 800] ------- [12:255 -1:255 30 0] [0x2 1 1 [19 0] [12 4]] (REQUEST)
r 0.000963598 _1_ MAC  --- 0 AODV 48 [0 ffffffff c 800] ------- [12:255 -1:255 30 0] [0x2 1 1 [19 0] [12 4]] (REQUEST)
r 0.000963718 _3_ MAC  --- 0 AODV 48 [0 ffffffff c 800] ------- [12:255 -1:255 30 0] [0x2 1 1 [19 0] [12 4]] (REQUEST)
r 0.000963727 _17_ MAC  --- 0 AODV 48 [0 ffffffff c 800] ------- [12:255 -1:255 30 0] [0x2 1 1 [19 0] [12 4]] (REQUEST)
r 0.000963735 _14_ MAC  --- 0 AODV 48 [0 ffffffff c 800] ------- [12:255 -1:255 30 0] [0x2 1 1 [19 0] [12 4]] (REQUEST)
r 0.000988135 _8_ RTR  --- 0 AODV 48 [0 ffffffff c 800] ------- [12:255 -1:255 30 0] [0x2 1 1 [19 0] [12 4]] (REQUEST)
r 0.000988360 _13_ RTR  --- 0 AODV 48 [0 ffffffff c 800] ------- [12:255 -1:255 30 0] [0x2 1 1 [19 0] [12 4]] (REQUEST)
r 0.000988420 _2_ RTR  --- 0 AODV 48 [0 ffffffff c 800] ------- [12:255 -1:255 30 0] [0x2 1 1 [19 0] [12 4]] (REQUEST)
r 0.000988576 _11_ RTR  --- 0 AODV 48 [0 ffffffff c 800] ------- [12:255 -1:255 30 0] [0x2 1 1 [19 0] [12 4]] (REQUEST)
r 0.000988598 _1_ RTR  --- 0 AODV 48 [0 ffffffff c 800] ------- [12:255 -1:255 30 0] [0x2 1 1 [19 0] [12 4]] (REQUEST)
r 0.000988718 _3_ RTR  --- 0 AODV 48 [0 ffffffff c 800] ------- [12:255 -1:255 30 0] [0x2 1 1 [19 0] [12 4]] (REQUEST)
r 0.000988727 _17_ RTR  --- 0 AODV 48 [0 ffffffff c 800] ------- [12:255 -1:255 30 0] [0x2 1 1 [19 0] [12 4]] (REQUEST)
r 0.000988735 _14_ RTR  --- 0 AODV 48 [0 ffffffff c 800] ------- [12:255 -1:255 30 0] [0x2 1 1 [19 0] [12 4]] (REQUEST)
s 0.001869362 _8_ RTR  --- 0 AODV 48 [0 ffffffff c 800] ------- [8:255 -1:255 29 0] [0x2 2 1 [19 0] [12 4]] (REQUEST)
s 0.002184362 _8_ MAC  --- 0 AODV 106 [0 ffffffff 8 800] ------- [8:255 -1:255 29 0] [0x2 2 1 [19 0] [12 4]] (REQUEST)
r 0.003032497 _12_ MAC  --- 0 AODV 48 [0 ffffffff 8 800] ------- [8:255 -1:255 29 0] [0x2 2 1 [19 0] [12 4]] (REQUEST)
r 0.003032829 _13_ MAC  --- 0 AODV 48 [0 ffffffff 8 800] ------- [8:255 -1:255 29 0] [0x2 2 1 [19 0] [12 4]] (REQUEST)
r 0.003032831 _2_ MAC  --- 0 AODV 48 [0 ffffffff 8 800] ------- [8:255 -1:255 29 0] [0x2 2 1 [19 0] [12 4]] (REQUEST)
r 0.003032869 _1_ MAC  --- 0 AODV 48 [0 ffffffff 8 800] ------- [8:255 -1:255 29 0] [0x2 2 1 [19 0] [12 4]] (REQUEST)
r 0.003032944 _11_ MAC  --- 0 AODV 48 [0 ffffffff 8 800] ------- [8:255 -1:255 29 0] [0x2 2 1 [19 0] [12 4]] (REQUEST)
r 0.003033053 _3_ MAC  --- 0 AODV 48 [0 ffffffff 8 800] ------- [8:255 -1:255 29 0] [0x2 2 1 [19 0] [12 4]] (REQUEST)
r 0.003033160 _14_ MAC  --- 0 AODV 48 [0 ffffffff 8 800] ------- [8:255 -1:255 29 0] [0x2 2 1 [19 0] [12 4]] (REQUEST)
r 0.003033189 _17_ MAC  --- 0 AODV 48 [0 ffffffff 8 800] ------- [8:255 -1:255 29 0] [0x2 2 1 [19 0] [12 4]] (REQUEST)
r 0.003057497 _12_ RTR  --- 0 AODV 48 [0 ffffffff 8 800] ------- [8:255 -1:255 29 0] [0x2 2 1 [19 0] [12 4]] (REQUEST)
r 0.003057829 _13_ RTR  --- 0 AODV 48 [0 ffffffff 8 800] ------- [8:255 -1:255 29 0] [0x2 2 1 [19 0] [12 4]] (REQUEST)
r 0.003057831 _2_ RTR  --- 0 AODV 48 [0 ffffffff 8 800] ------- [8:255 -1:255 29 0] [0x2 2 1 [19 0] [12 4]] (REQUEST)
r 0.003057869 _1_ RTR  --- 0 AODV 48 [0 ffffffff 8 800] ------- [8:255 -1:255 29 0] [0x2 2 1 [19 0] [12 4]] (REQUEST)
r 0.003057944 _11_ RTR  --- 0 AODV 48 [0 ffffffff 8 800] ------- [8:255 -1:255 29 0] [0x2 2 1 [19 0] [12 4]] (REQUEST)
r 0.003058053 _3_ RTR  --- 0 AODV 48 [0 ffffffff 8 800] ------- [8:255 -1:255 29 0] [0x2 2 1 [19 0] [12 4]] (REQUEST)
r 0.003058160 _14_ RTR  --- 0 AODV 48 [0 ffffffff 8 800] ------- [8:255 -1:255 29 0] [0x2 2 1 [19 0] [12 4]] (REQUEST)
r 0.003058189 _17_ RTR  --- 0 AODV 48 [0 ffffffff 8 800] ------- [8:255 -1:255 29 0] [0x2 2 1 [19 0] [12 4]] (REQUEST)
s 0.003334735 _3_ RTR  --- 0 AODV 48 [0 ffffffff c 800] ------- [3:255 -1:255 29 0] [0x2 2 1 [19 0] [12 4]] (REQUEST)
s 0.003949735 _3_ MAC  --- 0 AODV 106 [0 ffffffff 3 800] ------- [3:255 -1:255 29 0] [0x2 2 1 [19 0] [12 4]] (REQUEST)
s 0.004079526 _14_ RTR  --- 0 AODV 48 [0 ffffffff c 800] ------- [14:255 -1:255 29 0] [0x2 2 1 [19 0] [12 4]] (REQUEST)
s 0.004118194 _11_ RTR  --- 0 AODV 48 [0 ffffffff c 800] ------- [11:255 -1:255 29 0] [0x2 2 1 [19 0] [12 4]] (REQUEST)
r 0.004797936 _11_ MAC  --- 0 AODV 48 [0 ffffffff 3 800] ------- [3:255 -1:255 29 0] [0x2 2 1 [19 0] [12 4]] (REQUEST)
r 0.004798102 _1_ MAC  --- 0 AODV 48 [0 ffffffff 3 800] ------- [3:255 -1:255 29 0] [0x2 2 1 [19 0] [12 4]] (REQUEST)
r 0.004798123 _15_ MAC  --- 0 AODV 48 [0 ffffffff 3 800] ------- [3:255 -1:255 29 0] [0x2 2 1 [19 0] [12 4]] (REQUEST)
r 0.004798129 _6_ MAC  --- 0 AODV 48 [0 ffffffff 3 800] ------- [3:255 -1:255 29 0] [0x2 2 1 [19 0] [12 4]] (REQUEST)
r 0.004798143 _2_ MAC  --- 0 AODV 48 [0 ffffffff 3 800] ------- [3:255 -1:255 29 0] [0x2 2 1 [19 0] [12 4]] (REQUEST)
r 0.004798231 _14_ MAC  --- 0 AODV 48 [0 ffffffff 3 800] ------- [3:255 -1:255 29 0] [0x2 2 1 [19 0] [12 4]] (REQUEST)
r 0.004798237 _7_ MAC  --- 0 AODV 48 [0 ffffffff 3 800] ------- [3:255 -1:255 29 0] [0x2 2 1 [19 0] [12 4]] (REQUEST)
r 0.004798276 _5_ MAC  --- 0 AODV 48 [0 ffffffff 3 800] ------- [3:255 -1:255 29 0] [0x2 2 1 [19 0] [12 4]] (REQUEST)
r 0.004798286 _10_ MAC  --- 0 AODV 48 [0 ffffffff 3 800] ------- [3:255 -1:255 29 0] [0x2 2 1 [19 0] [12 4]] (REQUEST)
r 0.004798369 _4_ MAC  --- 0 AODV 48 [0 ffffffff 3 800] ------- [3:255 -1:255 29 0] [0x2 2 1 [19 0] [12 4]] (REQUEST)
r 0.004798374 _13_ MAC  --- 0 AODV 48 [0 ffffffff 3 800] ------- [3:255 -1:255 29 0] [0x2 2 1 [19 0] [12 4]] (REQUEST)
r 0.004798383 _18_ MAC  --- 0 AODV 48 [0 ffffffff 3 800] ------- [3:255 -1:255 29 0] [0x2 2 1 [19 0] [12 4]] (REQUEST)
r 0.004798415 _0_ MAC  --- 0 AODV 48 [0 ffffffff 3 800] ------- [3:255 -1:255 29 0] [0x2 2 1 [19 0] [12 4]] (REQUEST)
r 0.004798426 _8_ MAC  --- 0 AODV 48 [0 ffffffff 3 800] ------- [3:255 -1:255 29 0] [0x2 2 1 [19 0] [12 4]] (REQUEST)
r 0.004798452 _9_ MAC  --- 0 AODV 48 [0 ffffffff 3 800] ------- [3:255 -1:255 29 0] [0x2 2 1 [19 0] [12 4]] (REQUEST)
r 0.004798453 _12_ MAC  --- 0 AODV 48 [0 ffffffff 3 800] ------- [3:255 -1:255 29 0] [0x2 2 1 [19 0] [12 4]] (REQUEST)
r 0.004798464 _17_ MAC  --- 0 AODV 48 [0 ffffffff 3 800] ------- [3:255 -1:255 29 0] [0x2 2 1 [19 0] [12 4]] (REQUEST)
r 0.004798481 _16_ MAC  --- 0 AODV 48 [0 ffffffff 3 800] ------- [3:255 -1:255 29 0] [0x2 2 1 [19 0] [12 4]] (REQUEST)
r 0.004822936 _11_ RTR  --- 0 AODV 48 [0 ffffffff 3 800] ------- [3:255 -1:255 29 0] [0x2 2 1 [19 0] [12 4]] (REQUEST)
r 0.004823102 _1_ RTR  --- 0 AODV 48 [0 ffffffff 3 800] ------- [3:255 -1:255 29 0] [0x2 2 1 [19 0] [12 4]] (REQUEST)
r 0.004823123 _15_ RTR  --- 0 AODV 48 [0 ffffffff 3 800] ------- [3:255 -1:255 29 0] [0x2 2 1 [19 0] [12 4]] (REQUEST)
r 0.004823129 _6_ RTR  --- 0 AODV 48 [0 ffffffff 3 800] ------- [3:255 -1:255 29 0] [0x2 2 1 [19 0] [12 4]] (REQUEST)
r 0.004823143 _2_ RTR  --- 0 AODV 48 [0 ffffffff 3 800] ------- [3:255 -1:255 29 0] [0x2 2 1 [19 0] [12 4]] (REQUEST)
r 0.004823231 _14_ RTR  --- 0 AODV 48 [0 ffffffff 3 800] ------- [3:255 -1:255 29 0] [0x2 2 1 [19 0] [12 4]] (REQUEST)
r 0.004823237 _7_ RTR  --- 0 AODV 48 [0 ffffffff 3 800] ------- [3:255 -1:255 29 0] [0x2 2 1 [19 0] [12 4]] (REQUEST)
r 0.004823276 _5_ RTR  --- 0 AODV 48 [0 ffffffff 3 800] ------- [3:255 -1:255 29 0] [0x2 2 1 [19 0] [12 4]] (REQUEST)
r 0.004823286 _10_ RTR  --- 0 AODV 48 [0 ffffffff 3 800] ------- [3:255 -1:255 29 0] [0x2 2 1 [19 0] [12 4]] (REQUEST)
r 0.004823369 _4_ RTR  --- 0 AODV 48 [0 ffffffff 3 800] ------- [3:255 -1:255 29 0] [0x2 2 1 [19 0] [12 4]] (REQUEST)
r 0.004823374 _13_ RTR  --- 0 AODV 48 [0 ffffffff 3 800] ------- [3:255 -1:255 29 0] [0x2 2 1 [19 0] [12 4]] (REQUEST)
r 0.004823383 _18_ RTR  --- 0 AODV 48 [0 ffffffff 3 800] ------- [3:255 -1:255 29 0] [0x2 2 1 [19 0] [12 4]] (REQUEST)
r 0.004823415 _0_ RTR  --- 0 AODV 48 [0 ffffffff 3 800] ------- [3:255 -1:255 29 0] [0x2 2 1 [19 0] [12 4]] (REQUEST)
r 0.004823426 _8_ RTR  --- 0 AODV 48 [0 ffffffff 3 800] ------- [3:255 -1:255 29 0] [0x2 2 1 [19 0] [12 4]] (REQUEST)
r 0.004823452 _9_ RTR  --- 0 AODV 48 [0 ffffffff 3 800] ------- [3:255 -1:255 29 0] [0x2 2 1 [19 0] [12 4]] (REQUEST)
r 0.004823453 _12_ RTR  --- 0 AODV 48 [0 ffffffff 3 800] ------- [3:255 -1:255 29 0] [0x2 2 1 [19 0] [12 4]] (REQUEST)
r 0.004823464 _17_ RTR  --- 0 AODV 48 [0 ffffffff 3 800] ------- [3:255 -1:255 29 0] [0x2 2 1 [19 0] [12 4]] (REQUEST)
r 0.004823481 _16_ RTR  --- 0 AODV 48 [0 ffffffff 3 800] ------- [3:255 -1:255 29 0] [0x2 2 1 [19 0] [12 4]] (REQUEST)
s 0.005008231 _14_ MAC  --- 0 AODV 106 [0 ffffffff e 800] ------- [14:255 -1:255 29 0] [0x2 2 1 [19 0] [12 4]] (REQUEST)
s 0.005400094 _13_ RTR  --- 0 AODV 48 [0 ffffffff c 800] ------- [13:255 -1:255 29 0] [0x2 2 1 [19 0] [12 4]] (REQUEST)
s 0.005764625 _7_ RTR  --- 0 AODV 48 [0 ffffffff 3 800] ------- [7:255 -1:255 28 0] [0x2 3 1 [19 0] [12 4]] (REQUEST)
r 0.005856422 _0_ MAC  --- 0 AODV 48 [0 ffffffff e 800] ------- [14:255 -1:255 29 0] [0x2 2 1 [19 0] [12 4]] (REQUEST)
r 0.005856494 _17_ MAC  --- 0 AODV 48 [0 ffffffff e 800] ------- [14:255 -1:255 29 0] [0x2 2 1 [19 0] [12 4]] (REQUEST)
r 0.005856561 _2_ MAC  --- 0 AODV 48 [0 ffffffff e 800] ------- [14:255 -1:255 29 0] [0x2 2 1 [19 0] [12 4]] (REQUEST)
r 0.005856575 _11_ MAC  --- 0 AODV 48 [0 ffffffff e 800] ------- [14:255 -1:255 29 0] [0x2 2 1 [19 0] [12 4]] (REQUEST)
r 0.005856605 _15_ MAC  --- 0 AODV 48 [0 ffffffff e 800] ------- [14:255 -1:255 29 0] [0x2 2 1 [19 0] [12 4]] (REQUEST)
r 0.005856606 _16_ MAC  --- 0 AODV 48 [0 ffffffff e 800] ------- [14:255 -1:255 29 0] [0x2 2 1 [19 0] [12 4]] (REQUEST)
r 0.005856614 _7_ MAC  --- 0 AODV 48 [0 ffffffff e 800] ------- [14:255 -1:255 29 0] [0x2 2 1 [19 0] [12 4]] (REQUEST)
r 0.005856658 _13_ MAC  --- 0 AODV 48 [0 ffffffff e 800] ------- [14:255 -1:255 29 0] [0x2 2 1 [19 0] [12 4]] (REQUEST)
r 0.005856726 _3_ MAC  --- 0 AODV 48 [0 ffffffff e 800] ------- [14:255 -1:255 29 0] [0x2 2 1 [19 0] [12 4]] (REQUEST)
r 0.005856908 _18_ MAC  --- 0 AODV 48 [0 ffffffff e 800] ------- [14:255 -1:255 29 0] [0x2 2 1 [19 0] [12 4]] (REQUEST)
r 0.005856958 _6_ MAC  --- 0 AODV 48 [0 ffffffff e 800] ------- [14:255 -1:255 29 0] [0x2 2 1 [19 0] [12 4]] (REQUEST)
r 0.005856965 _12_ MAC  --- 0 AODV 48 [0 ffffffff e 800] ------- [14:255 -1:255 29 0] [0x2 2 1 [19 0] [12 4]] (REQUEST)
r 0.005856997 _10_ MAC  --- 0 AODV 48 [0 ffffffff e 800] ------- [14:255 -1:255 29 0] [0x2 2 1 [19 0] [12 4]] (REQUEST)
r 0.005857009 _1_ MAC  --- 0 AODV 48 [0 ffffffff e 800] ------- [14:255 -1:255 29 0] [0x2 2 1 [19 0] [12 4]] (REQUEST)
r 0.005857028 _8_ MAC  --- 0 AODV 48 [0 ffffffff e 800] ------- [14:255 -1:255 29 0] [0x2 2 1 [19 0] [12 4]] (REQUEST)
r 0.005881422 _0_ RTR  --- 0 AODV 48 [0 ffffffff e 800] ------- [14:255 -1:255 29 0] [0x2 2 1 [19 0] [12 4]] (REQUEST)
r 0.005881494 _17_ RTR  --- 0 AODV 48 [0 ffffffff e 800] ------- [14:255 -1:255 29 0] [0x2 2 1 [19 0] [12 4]] (REQUEST)
r 0.005881561 _2_ RTR  --- 0 AODV 48 [0 ffffffff e 800] ------- [14:255 -1:255 29 0] [0x2 2 1 [19 0] [12 4]] (REQUEST)
r 0.005881575 _11_ RTR  --- 0 AODV 48 [0 ffffffff e 800] ------- [14:255 -1:255 29 0] [0x2 2 1 [19 0] [12 4]] (REQUEST)
r 0.005881605 _15_ RTR  --- 0 AODV 48 [0 ffffffff e 800] ------- [14:255 -1:255 29 0] [0x2 2 1 [19 0] [12 4]] (REQUEST)
r 0.005881606 _16_ RTR  --- 0 AODV 48 [0 ffffffff e 800] ------- [14:255 -1:255 29 0] [0x2 2 1 [19 0] [12 4]] (REQUEST)
r 0.005881614 _7_ RTR  --- 0 AODV 48 [0 ffffffff e 800] ------- [14:255 -1:255 29 0] [0x2 2 1 [19 0] [12 4]] (REQUEST)
r 0.005881658 _13_ RTR  --- 0 AODV 48 [0 ffffffff e 800] ------- [14:255 -1:255 29 0] [0x2 2 1 [19 0] [12 4]] (REQUEST)
r 0.005881726 _3_ RTR  --- 0 AODV 48 [0 ffffffff e 800] ------- [14:255 -1:255 29 0] [0x2 2 1 [19 0] [12 4]] (REQUEST)
r 0.005881908 _18_ RTR  --- 0 AODV 48 [0 ffffffff e 800] ------- [14:255 -1:255 29 0] [0x2 2 1 [19 0] [12 4]] (REQUEST)
r 0.005881958 _6_ RTR  --- 0 AODV 48 [0 ffffffff e 800] ------- [14:255 -1:255 29 0] [0x2 2 1 [19 0] [12 4]] (REQUEST)
r 0.005881965 _12_ RTR  --- 0 AODV 48 [0 ffffffff e 800] ------- [14:255 -1:255 29 0] [0x2 2 1 [19 0] [12 4]] (REQUEST)
r 0.005881997 _10_ RTR  --- 0 AODV 48 [0 ffffffff e 800] ------- [14:255 -1:255 29 0] [0x2 2 1 [19 0] [12 4]] (REQUEST)
r 0.005882009 _1_ RTR  --- 0 AODV 48 [0 ffffffff e 800] ------- [14:255 -1:255 29 0] [0x2 2 1 [19 0] [12 4]] (REQUEST)
r 0.005882028 _8_ RTR  --- 0 AODV 48 [0 ffffffff e 800] ------- [14:255 -1:255 29 0] [0x2 2 1 [19 0] [12 4]] (REQUEST)
s 0.006106575 _11_ MAC  --- 0 AODV 106 [0 ffffffff b 800] ------- [11:255 -1:255 29 0] [0x2 2 1 [19 0] [12 4]] (REQUEST)
s 0.006571182 _6_ RTR  --- 0 AODV 48 [0 ffffffff 3 800] ------- [6:255 -1:255 28 0] [0x2 3 1 [19 0] [12 4]] (REQUEST)
r 0.006954776 _3_ MAC  --- 0 AODV 48 [0 ffffffff b 800] ------- [11:255 -1:255 29 0] [0x2 2 1 [19 0] [12 4]] (REQUEST)
r 0.006954787 _2_ MAC  --- 0 AODV 48 [0 ffffffff b 800] ------- [11:255 -1:255 29 0] [0x2 2 1 [19 0] [12 4]] (REQUEST)
r 0.006954920 _14_ MAC  --- 0 AODV 48 [0 ffffffff b 800] ------- [11:255 -1:255 29 0] [0x2 2 1 [19 0] [12 4]] (REQUEST)
r 0.006954984 _15_ MAC  --- 0 AODV 48 [0 ffffffff b 800] ------- [11:255 -1:255 29 0] [0x2 2 1 [19 0] [12 4]] (REQUEST)
r 0.006955010 _1_ MAC  --- 0 AODV 48 [0 ffffffff b 800] ------- [11:255 -1:255 29 0] [0x2 2 1 [19 0] [12 4]] (REQUEST)
r 0.006955018 _13_ MAC  --- 0 AODV 48 [0 ffffffff b 800] ------- [11:255 -1:255 29 0] [0x2 2 1 [19 0] [12 4]] (REQUEST)
r 0.006955076 _7_ MAC  --- 0 AODV 48 [0 ffffffff b 800] ------- [11:255 -1:255 29 0] [0x2 2 1 [19 0] [12 4]] (REQUEST)
r 0.006955112 _0_ MAC  --- 0 AODV 48 [0 ffffffff b 800] ------- [11:255 -1:255 29 0] [0x2 2 1 [19 0] [12 4]] (REQUEST)
r 0.006955123 _17_ MAC  --- 0 AODV 48 [0 ffffffff b 800] ------- [11:255 -1:255 29 0] [0x2 2 1 [19 0] [12 4]] (REQUEST)
r 0.006955141 _6_ MAC  --- 0 AODV 48 [0 ffffffff b 800] ------- [11:255 -1:255 29 0] [0x2 2 1 [19 0] [12 4]] (REQUEST)
r 0.006955151 _12_ MAC  --- 0 AODV 48 [0 ffffffff b 800] ------- [11:255 -1:255 29 0] [0x2 2 1 [19 0] [12 4]] (REQUEST)
r 0.006955157 _8_ MAC  --- 0 AODV 48 [0 ffffffff b 800] ------- [11:255 -1:255 29 0] [0x2 2 1 [19 0] [12 4]] (REQUEST)
r 0.006955242 _16_ MAC  --- 0 AODV 48 [0 ffffffff b 800] ------- [11:255 -1:255 29 0] [0x2 2 1 [19 0] [12 4]] (REQUEST)
r 0.006955266 _10_ MAC  --- 0 AODV 48 [0 ffffffff b 800] ------- [11:255 -1:255 29 0] [0x2 2 1 [19 0] [12 4]] (REQUEST)
r 0.006955299 _18_ MAC  --- 0 AODV 48 [0 ffffffff b 800] ------- [11:255 -1:255 29 0] [0x2 2 1 [19 0] [12 4]] (REQUEST)
r 0.006955316 _5_ MAC  --- 0 AODV 48 [0 ffffffff b 800] ------- [11:255 -1:255 29 0] [0x2 2 1 [19 0] [12 4]] (REQUEST)
r 0.006955370 _4_ MAC  --- 0 AODV 48 [0 ffffffff b 800] ------- [11:255 -1:255 29 0] [0x2 2 1 [19 0] [12 4]] (REQUEST)
r 0.006979776 _3_ RTR  --- 0 AODV 48 [0 ffffffff b 800] ------- [11:255 -1:255 29 0] [0x2 2 1 [19 0] [12 4]] (REQUEST)
r 0.006979787 _2_ RTR  --- 0 AODV 48 [0 ffffffff b 800] ------- [11:255 -1:255 29 0] [0x2 2 1 [19 0] [12 4]] (REQUEST)
r 0.006979920 _14_ RTR  --- 0 AODV 48 [0 ffffffff b 800] ------- [11:255 -1:255 29 0] [0x2 2 1 [19 0] [12 4]] (REQUEST)
r 0.006979984 _15_ RTR  --- 0 AODV 48 [0 ffffffff b 800] ------- [11:255 -1:255 29 0] [0x2 2 1 [19 0] [12 4]] (REQUEST)
r 0.006980010 _1_ RTR  --- 0 AODV 48 [0 ffffffff b 800] ------- [11:255 -1:255 29 0] [0x2 2 1 [19 0] [12 4]] (REQUEST)
r 0.006980018 _13_ RTR  --- 0 AODV 48 [0 ffffffff b 800] ------- [11:255 -1:255 29 0] [0x2 2 1 [19 0] [12 4]] (REQUEST)
r 0.006980076 _7_ RTR  --- 0 AODV 48 [0 ffffffff b 800] ------- [11:255 -1:255 29 0] [0x2 2 1 [19 0] [12 4]] (REQUEST)
r 0.006980112 _0_ RTR  --- 0 AODV 48 [0 ffffffff b 800] ------- [11:255 -1:255 29 0] [0x2 2 1 [19 0] [12 4]] (REQUEST)
r 0.006980123 _17_ RTR  --- 0 AODV 48 [0 ffffffff b 800] ------- [11:255 -1:255 29 0] [0x2 2 1 [19 0] [12 4]] (REQUEST)
r 0.006980141 _6_ RTR  --- 0 AODV 48 [0 ffffffff b 800] ------- [11:255 -1:255 29 0] [0x2 2 1 [19 0] [12 4]] (REQUEST)
r 0.006980151 _12_ RTR  --- 0 AODV 48 [0 ffffffff b 800] ------- [11:255 -1:255 29 0] [0x2 2 1 [19 0] [12 4]] (REQUEST)
r 0.006980157 _8_ RTR  --- 0 AODV 48 [0 ffffffff b 800] ------- [11:255 -1:255 29 0] [0x2 2 1 [19 0] [12 4]] (REQUEST)
r 0.006980242 _16_ RTR  --- 0 AODV 48 [0 ffffffff b 800] ------- [11:255 -1:255 29 0] [0x2 2 1 [19 0] [12 4]] (REQUEST)
r 0.006980266 _10_ RTR  --- 0 AODV 48 [0 ffffffff b 800] ------- [11:255 -1:255 29 0] [0x2 2 1 [19 0] [12 4]] (REQUEST)
r 0.006980299 _18_ RTR  --- 0 AODV 48 [0 ffffffff b 800] ------- [11:255 -1:255 29 0] [0x2 2 1 [19 0] [12 4]] (REQUEST)
r 0.006980316 _5_ RTR  --- 0 AODV 48 [0 ffffffff b 800] ------- [11:255 -1:255 29 0] [0x2 2 1 [19 0] [12 4]] (REQUEST)
r 0.006980370 _4_ RTR  --- 0 AODV 48 [0 ffffffff b 800] ------- [11:255 -1:255 29 0] [0x2 2 1 [19 0] [12 4]] (REQUEST)
s 0.007205076 _7_ MAC  --- 0 AODV 106 [0 ffffffff 7 800] ------- [7:255 -1:255 28 0] [0x2 3 1 [19 0] [12 4]] (REQUEST)
s 0.007377378 _17_ RTR  --- 0 AODV 48 [0 ffffffff c 800] ------- [17:255 -1:255 29 0] [0x2 2 1 [19 0] [12 4]] (REQUEST)
s 0.007404249 _4_ RTR  --- 0 AODV 48 [0 ffffffff 3 800] ------- [4:255 -1:255 28 0] [0x2 3 1 [19 0] [12 4]] (REQUEST)
r 0.008053192 _15_ MAC  --- 0 AODV 48 [0 ffffffff 7 800] ------- [7:255 -1:255 28 0] [0x2 3 1 [19 0] [12 4]] (REQUEST)
r 0.008053371 _18_ MAC  --- 0 AODV 48 [0 ffffffff 7 800] ------- [7:255 -1:255 28 0] [0x2 3 1 [19 0] [12 4]] (REQUEST)
r 0.008053389 _16_ MAC  --- 0 AODV 48 [0 ffffffff 7 800] ------- [7:255 -1:255 28 0] [0x2 3 1 [19 0] [12 4]] (REQUEST)
r 0.008053459 _14_ MAC  --- 0 AODV 48 [0 ffffffff 7 800] ------- [7:255 -1:255 28 0] [0x2 3 1 [19 0] [12 4]] (REQUEST)
r 0.008053513 _10_ MAC  --- 0 AODV 48 [0 ffffffff 7 800] ------- [7:255 -1:255 28 0] [0x2 3 1 [19 0] [12 4]] (REQUEST)
r 0.008053515 _0_ MAC  --- 0 AODV 48 [0 ffffffff 7 800] ------- [7:255 -1:255 28 0] [0x2 3 1 [19 0] [12 4]] (REQUEST)
r 0.008053553 _9_ MAC  --- 0 AODV 48 [0 ffffffff 7 800] ------- [7:255 -1:255 28 0] [0x2 3 1 [19 0] [12 4]] (REQUEST)
r 0.008053560 _6_ MAC  --- 0 AODV 48 [0 ffffffff 7 800] ------- [7:255 -1:255 28 0] [0x2 3 1 [19 0] [12 4]] (REQUEST)
r 0.008053576 _11_ MAC  --- 0 AODV 48 [0 ffffffff 7 800] ------- [7:255 -1:255 28 0] [0x2 3 1 [19 0] [12 4]] (REQUEST)
r 0.008053577 _3_ MAC  --- 0 AODV 48 [0 ffffffff 7 800] ------- [7:255 -1:255 28 0] [0x2 3 1 [19 0] [12 4]] (REQUEST)
r 0.008053695 _17_ MAC  --- 0 AODV 48 [0 ffffffff 7 800] ------- [7:255 -1:255 28 0] [0x2 3 1 [19 0] [12 4]] (REQUEST)
r 0.008053704 _2_ MAC  --- 0 AODV 48 [0 ffffffff 7 800] ------- [7:255 -1:255 28 0] [0x2 3 1 [19 0] [12 4]] (REQUEST)
r 0.008053853 _19_ MAC  --- 0 AODV 48 [0 ffffffff 7 800] ------- [7:255 -1:255 28 0] [0x2 3 1 [19 0] [12 4]] (REQUEST)
r 0.008053868 _13_ MAC  --- 0 AODV 48 [0 ffffffff 7 800] ------- [7:255 -1:255 28 0] [0x2 3 1 [19 0] [12 4]] (REQUEST)
r 0.008053904 _5_ MAC  --- 0 AODV 48 [0 ffffffff 7 800] ------- [7:255 -1:255 28 0] [0x2 3 1 [19 0] [12 4]] (REQUEST)
r 0.008078192 _15_ RTR  --- 0 AODV 48 [0 ffffffff 7 800] ------- [7:255 -1:255 28 0] [0x2 3 1 [19 0] [12 4]] (REQUEST)
r 0.008078371 _18_ RTR  --- 0 AODV 48 [0 ffffffff 7 800] ------- [7:255 -1:255 28 0] [0x2 3 1 [19 0] [12 4]] (REQUEST)
r 0.008078389 _16_ RTR  --- 0 AODV 48 [0 ffffffff 7 800] ------- [7:255 -1:255 28 0] [0x2 3 1 [19 0] [12 4]] (REQUEST)
r 0.008078459 _14_ RTR  --- 0 AODV 48 [0 ffffffff 7 800] ------- [7:255 -1:255 28 0] [0x2 3 1 [19 0] [12 4]] (REQUEST)
r 0.008078513 _10_ RTR  --- 0 AODV 48 [0 ffffffff 7 800] ------- [7:255 -1:255 28 0] [0x2 3 1 [19 0] [12 4]] (REQUEST)
r 0.008078515 _0_ RTR  --- 0 AODV 48 [0 ffffffff 7 800] ------- [7:255 -1:255 28 0] [0x2 3 1 [19 0] [12 4]] (REQUEST)
r 0.008078553 _9_ RTR  --- 0 AODV 48 [0 ffffffff 7 800] ------- [7:255 -1:255 28 0] [0x2 3 1 [19 0] [12 4]] (REQUEST)
r 0.008078560 _6_ RTR  --- 0 AODV 48 [0 ffffffff 7 800] ------- [7:255 -1:255 28 0] [0x2 3 1 [19 0] [12 4]] (REQUEST)
r 0.008078576 _11_ RTR  --- 0 AODV 48 [0 ffffffff 7 800] ------- [7:255 -1:255 28 0] [0x2 3 1 [19 0] [12 4]] (REQUEST)
r 0.008078577 _3_ RTR  --- 0 AODV 48 [0 ffffffff 7 800] ------- [7:255 -1:255 28 0] [0x2 3 1 [19 0] [12 4]] (REQUEST)
r 0.008078695 _17_ RTR  --- 0 AODV 48 [0 ffffffff 7 800] ------- [7:255 -1:255 28 0] [0x2 3 1 [19 0] [12 4]] (REQUEST)
r 0.008078704 _2_ RTR  --- 0 AODV 48 [0 ffffffff 7 800] ------- [7:255 -1:255 28 0] [0x2 3 1 [19 0] [12 4]] (REQUEST)
r 0.008078853 _19_ RTR  --- 0 AODV 48 [0 ffffffff 7 800] ------- [7:255 -1:255 28 0] [0x2 3 1 [19 0] [12 4]] (REQUEST)
s 0.008078853 _19_ RTR  --- 0 AODV 44 [0 0 0 0] ------- [19:255 12:255 30 7] [0x4 1 [19 4] 10.000000] (REPLY)
r 0.008078868 _13_ RTR  --- 0 AODV 48 [0 ffffffff 7 800] ------- [7:255 -1:255 28 0] [0x2 3 1 [19 0] [12 4]] (REQUEST)
r 0.008078904 _5_ RTR  --- 0 AODV 48 [0 ffffffff 7 800] ------- [7:255 -1:255 28 0] [0x2 3 1 [19 0] [12 4]] (REQUEST)
s 0.008213853 _19_ MAC  --- 0 ARP 86 [0 ffffffff 13 806] ------- [REQUEST 19/19 0/7]
s 0.008310696 _10_ RTR  --- 0 AODV 48 [0 ffffffff 3 800] ------- [10:255 -1:255 28 0] [0x2 3 1 [19 0] [12 4]] (REQUEST)
r 0.008902161 _9_ MAC  --- 0 ARP 28 [0 ffffffff 13 806] ------- [REQUEST 19/19 0/7]
r 0.008902229 _10_ MAC  --- 0 ARP 28 [0 ffffffff 13 806] ------- [REQUEST 19/19 0/7]
r 0.008902358 _18_ MAC  --- 0 ARP 28 [0 ffffffff 13 806] ------- [REQUEST 19/19 0/7]
r 0.008902367 _6_ MAC  --- 0 ARP 28 [0 ffffffff 13 806] ------- [REQUEST 19/19 0/7]
r 0.008902511 _5_ MAC  --- 0 ARP 28 [0 ffffffff 13 806] ------- [REQUEST 19/19 0/7]
r 0.008902612 _15_ MAC  --- 0 ARP 28 [0 ffffffff 13 806] ------- [REQUEST 19/19 0/7]
r 0.008902630 _7_ MAC  --- 0 ARP 28 [0 ffffffff 13 806] ------- [REQUEST 19/19 0/7]
s 0.008910240 _18_ RTR  --- 0 AODV 48 [0 ffffffff 3 800] ------- [18:255 -1:255 28 0] [0x2 3 1 [19 0] [12 4]] (REQUEST)
s 0.008979975 _2_ RTR  --- 0 AODV 48 [0 ffffffff c 800] ------- [2:255 -1:255 29 0] [0x2 2 1 [19 0] [12 4]] (REQUEST)
s 0.008992630 _7_ MAC  --- 0 RTS 44 [52e 13 7 0] 
s 0.009059691 _15_ RTR  --- 0 AODV 48 [0 ffffffff 3 800] ------- [15:255 -1:255 28 0] [0x2 3 1 [19 0] [12 4]] (REQUEST)
s 0.009153359 _1_ RTR  --- 0 AODV 48 [0 ffffffff c 800] ------- [1:255 -1:255 29 0] [0x2 2 1 [19 0] [12 4]] (REQUEST)
r 0.009345406 _19_ MAC  --- 0 RTS 44 [52e 13 7 0] 
s 0.009355406 _19_ MAC  --- 0 CTS 38 [3f4 7 0 0] 
s 0.009484611 _9_ RTR  --- 0 AODV 48 [0 ffffffff 3 800] ------- [9:255 -1:255 28 0] [0x2 3 1 [19 0] [12 4]] (REQUEST)
r 0.009660183 _7_ MAC  --- 0 CTS 38 [3f4 7 0 0] 
s 0.009670183 _7_ MAC  --- 0 ARP 86 [13a 13 7 806] ------- [REPLY 7/7 19/19]
s 0.010009903 _0_ RTR  --- 0 AODV 48 [0 ffffffff 3 800] ------- [0:255 -1:255 28 0] [0x2 3 1 [19 0] [12 4]] (REQUEST)
r 0.010358960 _19_ MAC  --- 0 ARP 28 [13a 13 7 806] ------- [REPLY 7/7 19/19]
s 0.010368960 _19_ MAC  --- 0 ACK 38 [0 7 0 0] 
r 0.010673737 _7_ MAC  --- 0 ACK 38 [0 7 0 0] 
s 0.010743474 _6_ MAC  --- 0 AODV 106 [0 ffffffff 6 800] ------- [6:255 -1:255 28 0] [0x2 3 1 [19 0] [12 4]] (REQUEST)
r 0.011591674 _10_ MAC  --- 0 AODV 48 [0 ffffffff 6 800] ------- [6:255 -1:255 28 0] [0x2 3 1 [19 0] [12 4]] (REQUEST)
r 0.011591829 _5_ MAC  --- 0 AODV 48 [0 ffffffff 6 800] ------- [6:255 -1:255 28 0] [0x2 3 1 [19 0] [12 4]] (REQUEST)
r 0.011591857 _9_ MAC  --- 0 AODV 48 [0 ffffffff 6 800] ------- [6:255 -1:255 28 0] [0x2 3 1 [19 0] [12 4]] (REQUEST)
r 0.011591868 _3_ MAC  --- 0 AODV 48 [0 ffffffff 6 800] ------- [6:255 -1:255 28 0] [0x2 3 1 [19 0] [12 4]] (REQUEST)
r 0.011591871 _15_ MAC  --- 0 AODV 48 [0 ffffffff 6 800] ------- [6:255 -1:255 28 0] [0x2 3 1 [19 0] [12 4]] (REQUEST)
r 0.011591891 _18_ MAC  --- 0 AODV 48 [0 ffffffff 6 800] ------- [6:255 -1:255 28 0] [0x2 3 1 [19 0] [12 4]] (REQUEST)
r 0.011591958 _7_ MAC  --- 0 AODV 48 [0 ffffffff 6 800] ------- [6:255 -1:255 28 0] [0x2 3 1 [19 0] [12 4]] (REQUEST)
r 0.011591988 _19_ MAC  --- 0 AODV 48 [0 ffffffff 6 800] ------- [6:255 -1:255 28 0] [0x2 3 1 [19 0] [12 4]] (REQUEST)
r 0.011592040 _11_ MAC  --- 0 AODV 48 [0 ffffffff 6 800] ------- [6:255 -1:255 28 0] [0x2 3 1 [19 0] [12 4]] (REQUEST)
r 0.011592141 _1_ MAC  --- 0 AODV 48 [0 ffffffff 6 800] ------- [6:255 -1:255 28 0] [0x2 3 1 [19 0] [12 4]] (REQUEST)
r 0.011592157 _4_ MAC  --- 0 AODV 48 [0 ffffffff 6 800] ------- [6:255 -1:255 28 0] [0x2 3 1 [19 0] [12 4]] (REQUEST)
r 0.011592201 _14_ MAC  --- 0 AODV 48 [0 ffffffff 6 800] ------- [6:255 -1:255 28 0] [0x2 3 1 [19 0] [12 4]] (REQUEST)
r 0.011592250 _2_ MAC  --- 0 AODV 48 [0 ffffffff 6 800] ------- [6:255 -1:255 28 0] [0x2 3 1 [19 0] [12 4]] (REQUEST)
r 0.011592271 _16_ MAC  --- 0 AODV 48 [0 ffffffff 6 800] ------- [6:255 -1:255 28 0] [0x2 3 1 [19 0] [12 4]] (REQUEST)
r 0.011616674 _10_ RTR  --- 0 AODV 48 [0 ffffffff 6 800] ------- [6:255 -1:255 28 0] [0x2 3 1 [19 0] [12 4]] (REQUEST)
r 0.011616829 _5_ RTR  --- 0 AODV 48 [0 ffffffff 6 800] ------- [6:255 -1:255 28 0] [0x2 3 1 [19 0] [12 4]] (REQUEST)
r 0.011616857 _9_ RTR  --- 0 AODV 48 [0 ffffffff 6 800] ------- [6:255 -1:255 28 0] [0x2 3 1 [19 0] [12 4]] (REQUEST)
r 0.011616868 _3_ RTR  --- 0 AODV 48 [0 ffffffff 6 800] ------- [6:255 -1:255 28 0] [0x2 3 1 [19 0] [12 4]] (REQUEST)
r 0.011616871 _15_ RTR  --- 0 AODV 48 [0 ffffffff 6 800] ------- [6:255 -1:255 28 0] [0x2 3 1 [19 0] [12 4]] (REQUEST)
r 0.011616891 _18_ RTR  --- 0 AODV 48 [0 ffffffff 6 800] ------- [6:255 -1:255 28 0] [0x2 3 1 [19 0] [12 4]] (REQUEST)
r 0.011616958 _7_ RTR  --- 0 AODV 48 [0 ffffffff 6 800] ------- [6:255 -1:255 28 0] [0x2 3 1 [19 0] [12 4]] (REQUEST)
r 0.011616988 _19_ RTR  --- 0 AODV 48 [0 ffffffff 6 800] ------- [6:255 -1:255 28 0] [0x2 3 1 [19 0] [12 4]] (REQUEST)
r 0.011617040 _11_ RTR  --- 0 AODV 48 [0 ffffffff 6 800] ------- [6:255 -1:255 28 0] [0x2 3 1 [19 0] [12 4]] (REQUEST)
r 0.011617141 _1_ RTR  --- 0 AODV 48 [0 ffffffff 6 800] ------- [6:255 -1:255 28 0] [0x2 3 1 [19 0] [12 4]] (REQUEST)
r 0.011617157 _4_ RTR  --- 0 AODV 48 [0 ffffffff 6 800] ------- [6:255 -1:255 28 0] [0x2 3 1 [19 0] [12 4]] (REQUEST)
r 0.011617201 _14_ RTR  --- 0 AODV 48 [0 ffffffff 6 800] ------- [6:255 -1:255 28 0] [0x2 3 1 [19 0] [12 4]] (REQUEST)
r 0.011617250 _2_ RTR  --- 0 AODV 48 [0 ffffffff 6 800] ------- [6:255 -1:255 28 0] [0x2 3 1 [19 0] [12 4]] (REQUEST)
r 0.011617271 _16_ RTR  --- 0 AODV 48 [0 ffffffff 6 800] ------- [6:255 -1:255 28 0] [0x2 3 1 [19 0] [12 4]] (REQUEST)
s 0.011721891 _18_ MAC  --- 0 AODV 106 [0 ffffffff 12 800] ------- [18:255 -1:255 28 0] [0x2 3 1 [19 0] [12 4]] (REQUEST)
s 0.011746549 _16_ RTR  --- 0 AODV 48 [0 ffffffff 3 800] ------- [16:255 -1:255 28 0] [0x2 3 1 [19 0] [12 4]] (REQUEST)
r 0.012570088 _9_ MAC  --- 0 AODV 48 [0 ffffffff 12 800] ------- [18:255 -1:255 28 0] [0x2 3 1 [19 0] [12 4]] (REQUEST)
r 0.012570147 _10_ MAC  --- 0 AODV 48 [0 ffffffff 12 800] ------- [18:255 -1:255 28 0] [0x2 3 1 [19 0] [12 4]] (REQUEST)
r 0.012570186 _7_ MAC  --- 0 AODV 48 [0 ffffffff 12 800] ------- [18:255 -1:255 28 0] [0x2 3 1 [19 0] [12 4]] (REQUEST)
r 0.012570218 _15_ MAC  --- 0 AODV 48 [0 ffffffff 12 800] ------- [18:255 -1:255 28 0] [0x2 3 1 [19 0] [12 4]] (REQUEST)
r 0.012570307 _6_ MAC  --- 0 AODV 48 [0 ffffffff 12 800] ------- [18:255 -1:255 28 0] [0x2 3 1 [19 0] [12 4]] (REQUEST)
r 0.012570396 _19_ MAC  --- 0 AODV 48 [0 ffffffff 12 800] ------- [18:255 -1:255 28 0] [0x2 3 1 [19 0] [12 4]] (REQUEST)
r 0.012570426 _16_ MAC  --- 0 AODV 48 [0 ffffffff 12 800] ------- [18:255 -1:255 28 0] [0x2 3 1 [19 0] [12 4]] (REQUEST)
r 0.012570539 _3_ MAC  --- 0 AODV 48 [0 ffffffff 12 800] ------- [18:255 -1:255 28 0] [0x2 3 1 [19 0] [12 4]] (REQUEST)
r 0.012570568 _14_ MAC  --- 0 AODV 48 [0 ffffffff 12 800] ------- [18:255 -1:255 28 0] [0x2 3 1 [19 0] [12 4]] (REQUEST)
r 0.012570614 _11_ MAC  --- 0 AODV 48 [0 ffffffff 12 800] ------- [18:255 -1:255 28 0] [0x2 3 1 [19 0] [12 4]] (REQUEST)
r 0.012570616 _0_ MAC  --- 0 AODV 48 [0 ffffffff 12 800] ------- [18:255 -1:255 28 0] [0x2 3 1 [19 0] [12 4]] (REQUEST)
r 0.012570652 _5_ MAC  --- 0 AODV 48 [0 ffffffff 12 800] ------- [18:255 -1:255 28 0] [0x2 3 1 [19 0] [12 4]] (REQUEST)
r 0.012595088 _9_ RTR  --- 0 AODV 48 [0 ffffffff 12 800] ------- [18:255 -1:255 28 0] [0x2 3 1 [19 0] [12 4]] (REQUEST)
r 0.012595147 _10_ RTR  --- 0 AODV 48 [0 ffffffff 12 800] ------- [18:255 -1:255 28 0] [0x2 3 1 [19 0] [12 4]] (REQUEST)
r 0.012595186 _7_ RTR  --- 0 AODV 48 [0 ffffffff 12 800] ------- [18:255 -1:255 28 0] [0x2 3 1 [19 0] [12 4]] (REQUEST)
r 0.012595218 _15_ RTR  --- 0 AODV 48 [0 ffffffff 12 800] ------- [18:255 -1:255 28 0] [0x2 3 1 [19 0] [12 4]] (REQUEST)
r 0.012595307 _6_ RTR  --- 0 AODV 48 [0 ffffffff 12 800] ------- [18:255 -1:255 28 0] [0x2 3 1 [19 0] [12 4]] (REQUEST)
r 0.012595396 _19_ RTR  --- 0 AODV 48 [0 ffffffff 12 800] ------- [18:255 -1:255 28 0] [0x2 3 1 [19 0] [12 4]] (REQUEST)
r 0.012595426 _16_ RTR  --- 0 AODV 48 [0 ffffffff 12 800] ------- [18:255 -1:255 28 0] [0x2 3 1 [19 0] [12 4]] (REQUEST)
r 0.012595539 _3_ RTR  --- 0 AODV 48 [0 ffffffff 12 800] ------- [18:255 -1:255 28 0] [0x2 3 1 [19 0] [12 4]] (REQUEST)
r 0.012595568 _14_ RTR  --- 0 AODV 48 [0 ffffffff 12 800] ------- [18:255 -1:255 28 0] [0x2 3 1 [19 0] [12 4]] (REQUEST)
r 0.012595614 _11_ RTR  --- 0 AODV 48 [0 ffffffff 12 800] ------- [18:255 -1:255 28 0] [0x2 3 1 [19 0] [12 4]] (REQUEST)
r 0.012595616 _0_ RTR  --- 0 AODV 48 [0 ffffffff 12 800] ------- [18:255 -1:255 28 0] [0x2 3 1 [19 0] [12 4]] (REQUEST)
r 0.012595652 _5_ RTR  --- 0 AODV 48 [0 ffffffff 12 800] ------- [18:255 -1:255 28 0] [0x2 3 1 [19 0] [12 4]] (REQUEST)