s 0.000000000 _12_ AGT  --- 0 tcp 40 [0 0 0 0] ------- [12:0 19:0 32 0] [0 0] 0 0
r 0.000000000 _12_ RTR  --- 0 tcp 40 [0 0 0 0] ------- [12:0 19:0 32 0] [0 0] 0 0
s 0.000000000 _12_ RTR  --- 0 AODV 48 [0 0 0 0] ------- [12:255 -1:255 30 0] [0x2 1 1 [19 0] [12 4]] (REQUEST)
s 0.000115000 _12_ MAC  --- 0 AODV 106 [0 ffffffff c 800] ------- [12:255 -1:255 30 0] [0x2 1 1 [19 0] [12 4]] (REQUEST)
r 0.000963135 _8_ MAC  --- 0 AODV 48 [0 ffffffff c 800] ------- [12:255 -1:255 30 0] [0x2 1 1 [19 0] [12 4]] (REQUEST)
r 0.000963360 _13_ MAC  --- 0 AODV 48 [0 ffffffff c 800] ------- [12:255 -1:255 30 0] [0x2 1 1 [19 0] [12 4]] (REQUEST)
r 0.000963420 _2_ MAC  --- 0 AODV 48 [0 ffffffff c 800] ------- [12:255 -1:255 30 0] [0x2 1 1 [19 0] [12 4]] (REQUEST)
r 0.000963462 _25_ MAC  --- 0 AODV 48 [0 ffffffff c 800] ------- [12:255 -1:255 30 0] [0x2 1 1 [19 0] [12 4]] (REQUEST)
r 0.000963538 _20_ MAC  --- 0 AODV 48 [0 ffffffff c 800] ------- [12:255 -1:255 30 0] [0x2 1 1 [19 0] [12 4]] (REQUEST)
r 0.000963576 _11_ MAC  --- 0 AODV 48 [0 ffffffff c 800] ------- [12:255 -1:255 30 0] [0x2 1 1 [19 0] [12 4]] (REQUEST)
r 0.000963598 _1_ MAC  --- 0 AODV 48 [0 ffffffff c 800] ------- [12:255 -1:255 30 0] [0x2 1 1 [19 0] [12 4]] (REQUEST)
r 0.000963628 _21_ MAC  --- 0 AODV 48 [0 ffffffff c 800] ------- [12:255 -1:255 30 0] [0x2 1 1 [19 0] [12 4]] (REQUEST)
r 0.000963718 _3_ MAC  --- 0 AODV 48 [0 ffffffff c 800] ------- [12:255 -1:255 30 0] [0x2 1 1 [19 0] [12 4]] (REQUEST)
r 0.000963727 _17_ MAC  --- 0 AODV 48 [0 ffffffff c 800] ------- [12:255 -1:255 30 0] [0x2 1 1 [19 0] [12 4]] (REQUEST)
r 0.000963730 _27_ MAC  --- 0 AODV 48 [0 ffffffff c 800] ------- [12:255 -1:255 30 0] [0x2 1 1 [19 0] [12 4]] (REQUEST)
r 0.000963735 _14_ MAC  --- 0 AODV 48 [0 ffffffff c 800] ------- [12:255 -1:255 30 0] [0x2 1 1 [19 0] [12 4]] (REQUEST)
r 0.000988135 _8_ RTR  --- 0 AODV 48 [0 ffffffff c 800] ------- [12:255 -1:255 30 0] [0x2 1 1 [19 0] [12 4]] (REQUEST)
r 0.000988360 _13_ RTR  --- 0 AODV 48 [0 ffffffff c 800] ------- [12:255 -1:255 30 0] [0x2 1 1 [19 0] [12 4]] (REQUEST)
r 0.000988420 _2_ RTR  --- 0 AODV 48 [0 ffffffff c 800] ------- [12:255 -1:255 30 0] [0x2 1 1 [19 0] [12 4]] (REQUEST)
r 0.000988462 _25_ RTR  --- 0 AODV 48 [0 ffffffff c 800] ------- [12:255 -1:255 30 0] [0x2 1 1 [19 0] [12 4]] (REQUEST)
r 0.000988538 _20_ RTR  --- 0 AODV 48 [0 ffffffff c 800] ------- [12:255 -1:255 30 0] [0x2 1 1 [19 0] [12 4]] (REQUEST)
r 0.000988576 _11_ RTR  --- 0 AODV 48 [0 ffffffff c 800] ------- [12:255 -1:255 30 0] [0x2 1 1 [19 0] [12 4]] (REQUEST)
r 0.000988598 _1_ RTR  --- 0 AODV 48 [0 ffffffff c 800] ------- [12:255 -1:255 30 0] [0x2 1 1 [19 0] [12 4]] (REQUEST)
r 0.000988628 _21_ RTR  --- 0 AODV 48 [0 ffffffff c 800] ------- [12:255 -1:255 30 0] [0x2 1 1 [19 0] [12 4]] (REQUEST)
r 0.000988718 _3_ RTR  --- 0 AODV 48 [0 ffffffff c 800] ------- [12:255 -1:255 30 0] [0x2 1 1 [19 0] [12 4]] (REQUEST)
r 0.000988727 _17_ RTR  --- 0 AODV 48 [0 ffffffff c 800] ------- [12:255 -1:255 30 0] [0x2 1 1 [19 0] [12 4]] (REQUEST)
r 0.000988730 _27_ RTR  --- 0 AODV 48 [0 ffffffff c 800] ------- [12:255 -1:255 30 0] [0x2 1 1 [19 0] [12 4]] (REQUEST)
r 0.000988735 _14_ RTR  --- 0 AODV 48 [0 ffffffff c 800] ------- [12:255 -1:255 30 0] [0x2 1 1 [19 0] [12 4]] (REQUEST)
s 0.001416676 _27_ RTR  --- 0 AODV 48 [0 ffffffff c 800] ------- [27:255 -1:255 29 0] [0x2 2 1 [19 0] [12 4]] (REQUEST)
s 0.001851676 _27_ MAC  --- 0 AODV 106 [0 ffffffff 1b 800] ------- [27:255 -1:255 29 0] [0x2 2 1 [19 0] [12 4]] (REQUEST)
s 0.001869362 _8_ RTR  --- 0 AODV 48 [0 ffffffff c 800] ------- [8:255 -1:255 29 0] [0x2 2 1 [19 0] [12 4]] (REQUEST)
s 0.002630181 _17_ RTR  --- 0 AODV 48 [0 ffffffff c 800] ------- [17:255 -1:255 29 0] [0x2 2 1 [19 0] [12 4]] (REQUEST)
r 0.002699871 _20_ MAC  --- 0 AODV 48 [0 ffffffff 1b 800] ------- [27:255 -1:255 29 0] [0x2 2 1 [19 0] [12 4]] (REQUEST)
r 0.002699991 _1_ MAC  --- 0 AODV 48 [0 ffffffff 1b 800] ------- [27:255 -1:255 29 0] [0x2 2 1 [19 0] [12 4]] (REQUEST)
r 0.002700022 _28_ MAC  --- 0 AODV 48 [0 ffffffff 1b 800] ------- [27:255 -1:255 29 0] [0x2 2 1 [19 0] [12 4]] (REQUEST)
r 0.002700084 _4_ MAC  --- 0 AODV 48 [0 ffffffff 1b 800] ------- [27:255 -1:255 29 0] [0x2 2 1 [19 0] [12 4]] (REQUEST)
r 0.002700157 _22_ MAC  --- 0 AODV 48 [0 ffffffff 1b 800] ------- [27:255 -1:255 29 0] [0x2 2 1 [19 0] [12 4]] (REQUEST)
r 0.002700183 _21_ MAC  --- 0 AODV 48 [0 ffffffff 1b 800] ------- [27:255 -1:255 29 0] [0x2 2 1 [19 0] [12 4]] (REQUEST)
r 0.002700259 _24_ MAC  --- 0 AODV 48 [0 ffffffff 1b 800] ------- [27:255 -1:255 29 0] [0x2 2 1 [19 0] [12 4]] (REQUEST)
r 0.002700278 _8_ MAC  --- 0 AODV 48 [0 ffffffff 1b 800] ------- [27:255 -1:255 29 0] [0x2 2 1 [19 0] [12 4]] (REQUEST)
r 0.002700343 _29_ MAC  --- 0 AODV 48 [0 ffffffff 1b 800] ------- [27:255 -1:255 29 0] [0x2 2 1 [19 0] [12 4]] (REQUEST)
r 0.002700352 _3_ MAC  --- 0 AODV 48 [0 ffffffff 1b 800] ------- [27:255 -1:255 29 0] [0x2 2 1 [19 0] [12 4]] (REQUEST)
r 0.002700405 _12_ MAC  --- 0 AODV 48 [0 ffffffff 1b 800] ------- [27:255 -1:255 29 0] [0x2 2 1 [19 0] [12 4]] (REQUEST)
r 0.002700420 _11_ MAC  --- 0 AODV 48 [0 ffffffff 1b 800] ------- [27:255 -1:255 29 0] [0x2 2 1 [19 0] [12 4]] (REQUEST)
r 0.002700422 _5_ MAC  --- 0 AODV 48 [0 ffffffff 1b 800] ------- [27:255 -1:255 29 0] [0x2 2 1 [19 0] [12 4]] (REQUEST)
r 0.002700487 _2_ MAC  --- 0 AODV 48 [0 ffffffff 1b 800] ------- [27:255 -1:255 29 0] [0x2 2 1 [19 0] [12 4]] (REQUEST)
r 0.002724871 _20_ RTR  --- 0 AODV 48 [0 ffffffff 1b 800] ------- [27:255 -1:255 29 0] [0x2 2 1 [19 0] [12 4]] (REQUEST)
r 0.002724991 _1_ RTR  --- 0 AODV 48 [0 ffffffff 1b 800] ------- [27:255 -1:255 29 0] [0x2 2 1 [19 0] [12 4]] (REQUEST)
r 0.002725022 _28_ RTR  --- 0 AODV 48 [0 ffffffff 1b 800] ------- [27:255 -1:255 29 0] [0x2 2 1 [19 0] [12 4]] (REQUEST)
r 0.002725084 _4_ RTR  --- 0 AODV 48 [0 ffffffff 1b 800] ------- [27:255 -1:255 29 0] [0x2 2 1 [19 0] [12 4]] (REQUEST)
r 0.002725157 _22_ RTR  --- 0 AODV 48 [0 ffffffff 1b 800] ------- [27:255 -1:255 29 0] [0x2 2 1 [19 0] [12 4]] (REQUEST)
r 0.002725183 _21_ RTR  --- 0 AODV 48 [0 ffffffff 1b 800] ------- [27:255 -1:255 29 0] [0x2 2 1 [19 0] [12 4]] (REQUEST)
r 0.002725259 _24_ RTR  --- 0 AODV 48 [0 ffffffff 1b 800] ------- [27:255 -1:255 29 0] [0x2 2 1 [19 0] [12 4]] (REQUEST)
r 0.002725278 _8_ RTR  --- 0 AODV 48 [0 ffffffff 1b 800] ------- [27:255 -1:255 29 0] [0x2 2 1 [19 0] [12 4]] (REQUEST)
r 0.002725343 _29_ RTR  --- 0 AODV 48 [0 ffffffff 1b 800] ------- [27:255 -1:255 29 0] [0x2 2 1 [19 0] [12 4]] (REQUEST)
r 0.002725352 _3_ RTR  --- 0 AODV 48 [0 ffffffff 1b 800] ------- [27:255 -1:255 29 0] [0x2 2 1 [19 0] [12 4]] (REQUEST)
r 0.002725405 _12_ RTR  --- 0 AODV 48 [0 ffffffff 1b 800] ------- [27:255 -1:255 29 0] [0x2 2 1 [19 0] [12 4]] (REQUEST)
r 0.002725420 _11_ RTR  --- 0 AODV 48 [0 ffffffff 1b 800] ------- [27:255 -1:255 29 0] [0x2 2 1 [19 0] [12 4]] (REQUEST)
r 0.002725422 _5_ RTR  --- 0 AODV 48 [0 ffffffff 1b 800] ------- [27:255 -1:255 29 0] [0x2 2 1 [19 0] [12 4]] (REQUEST)
r 0.002725487 _2_ RTR  --- 0 AODV 48 [0 ffffffff 1b 800] ------- [27:255 -1:255 29 0] [0x2 2 1 [19 0] [12 4]] (REQUEST)
s 0.002990278 _8_ MAC  --- 0 AODV 106 [0 ffffffff 8 800] ------- [8:255 -1:255 29 0] [0x2 2 1 [19 0] [12 4]] (REQUEST)
s 0.003334593 _11_ RTR  --- 0 AODV 48 [0 ffffffff c 800] ------- [11:255 -1:255 29 0] [0x2 2 1 [19 0] [12 4]] (REQUEST)
s 0.003666411 _28_ RTR  --- 0 AODV 48 [0 ffffffff 1b 800] ------- [28:255 -1:255 28 0] [0x2 3 1 [19 0] [12 4]] (REQUEST)
r 0.003838413 _12_ MAC  --- 0 AODV 48 [0 ffffffff 8 800] ------- [8:255 -1:255 29 0] [0x2 2 1 [19 0] [12 4]] (REQUEST)
r 0.003838692 _20_ MAC  --- 0 AODV 48 [0 ffffffff 8 800] ------- [8:255 -1:255 29 0] [0x2 2 1 [19 0] [12 4]] (REQUEST)
r 0.003838745 _13_ MAC  --- 0 AODV 48 [0 ffffffff 8 800] ------- [8:255 -1:255 29 0] [0x2 2 1 [19 0] [12 4]] (REQUEST)
r 0.003838747 _2_ MAC  --- 0 AODV 48 [0 ffffffff 8 800] ------- [8:255 -1:255 29 0] [0x2 2 1 [19 0] [12 4]] (REQUEST)
r 0.003838785 _1_ MAC  --- 0 AODV 48 [0 ffffffff 8 800] ------- [8:255 -1:255 29 0] [0x2 2 1 [19 0] [12 4]] (REQUEST)
r 0.003838797 _25_ MAC  --- 0 AODV 48 [0 ffffffff 8 800] ------- [8:255 -1:255 29 0] [0x2 2 1 [19 0] [12 4]] (REQUEST)
r 0.003838851 _21_ MAC  --- 0 AODV 48 [0 ffffffff 8 800] ------- [8:255 -1:255 29 0] [0x2 2 1 [19 0] [12 4]] (REQUEST)
r 0.003838859 _11_ MAC  --- 0 AODV 48 [0 ffffffff 8 800] ------- [8:255 -1:255 29 0] [0x2 2 1 [19 0] [12 4]] (REQUEST)
r 0.003838880 _27_ MAC  --- 0 AODV 48 [0 ffffffff 8 800] ------- [8:255 -1:255 29 0] [0x2 2 1 [19 0] [12 4]] (REQUEST)
r 0.003838968 _3_ MAC  --- 0 AODV 48 [0 ffffffff 8 800] ------- [8:255 -1:255 29 0] [0x2 2 1 [19 0] [12 4]] (REQUEST)
r 0.003839075 _14_ MAC  --- 0 AODV 48 [0 ffffffff 8 800] ------- [8:255 -1:255 29 0] [0x2 2 1 [19 0] [12 4]] (REQUEST)
r 0.003839095 _28_ MAC  --- 0 AODV 48 [0 ffffffff 8 800] ------- [8:255 -1:255 29 0] [0x2 2 1 [19 0] [12 4]] (REQUEST)
r 0.003839104 _17_ MAC  --- 0 AODV 48 [0 ffffffff 8 800] ------- [8:255 -1:255 29 0] [0x2 2 1 [19 0] [12 4]] (REQUEST)
r 0.003863413 _12_ RTR  --- 0 AODV 48 [0 ffffffff 8 800] ------- [8:255 -1:255 29 0] [0x2 2 1 [19 0] [12 4]] (REQUEST)
r 0.003863692 _20_ RTR  --- 0 AODV 48 [0 ffffffff 8 800] ------- [8:255 -1:255 29 0] [0x2 2 1 [19 0] [12 4]] (REQUEST)
r 0.003863745 _13_ RTR  --- 0 AODV 48 [0 ffffffff 8 800] ------- [8:255 -1:255 29 0] [0x2 2 1 [19 0] [12 4]] (REQUEST)
r 0.003863747 _2_ RTR  --- 0 AODV 48 [0 ffffffff 8 800] ------- [8:255 -1:255 29 0] [0x2 2 1 [19 0] [12 4]] (REQUEST)
r 0.003863785 _1_ RTR  --- 0 AODV 48 [0 ffffffff 8 800] ------- [8:255 -1:255 29 0] [0x2 2 1 [19 0] [12 4]] (REQUEST)
r 0.003863797 _25_ RTR  --- 0 AODV 48 [0 ffffffff 8 800] ------- [8:255 -1:255 29 0] [0x2 2 1 [19 0] [12 4]] (REQUEST)
r 0.003863851 _21_ RTR  --- 0 AODV 48 [0 ffffffff 8 800] ------- [8:255 -1:255 29 0] [0x2 2 1 [19 0] [12 4]] (REQUEST)
r 0.003863859 _11_ RTR  --- 0 AODV 48 [0 ffffffff 8 800] ------- [8:255 -1:255 29 0] [0x2 2 1 [19 0] [12 4]] (REQUEST)
r 0.003863880 _27_ RTR  --- 0 AODV 48 [0 ffffffff 8 800] ------- [8:255 -1:255 29 0] [0x2 2 1 [19 0] [12 4]] (REQUEST)
r 0.003863968 _3_ RTR  --- 0 AODV 48 [0 ffffffff 8 800] ------- [8:255 -1:255 29 0] [0x2 2 1 [19 0] [12 4]] (REQUEST)
r 0.003864075 _14_ RTR  --- 0 AODV 48 [0 ffffffff 8 800] ------- [8:255 -1:255 29 0] [0x2 2 1 [19 0] [12 4]] (REQUEST)
r 0.003864095 _28_ RTR  --- 0 AODV 48 [0 ffffffff 8 800] ------- [8:255 -1:255 29 0] [0x2 2 1 [19 0] [12 4]] (REQUEST)
r 0.003864104 _17_ RTR  --- 0 AODV 48 [0 ffffffff 8 800] ------- [8:255 -1:255 29 0] [0x2 2 1 [19 0] [12 4]] (REQUEST)
s 0.004049104 _17_ MAC  --- 0 AODV 106 [0 ffffffff 11 800] ------- [17:255 -1:255 29 0] [0x2 2 1 [19 0] [12 4]] (REQUEST)
s 0.004079418 _21_ RTR  --- 0 AODV 48 [0 ffffffff c 800] ------- [21:255 -1:255 29 0] [0x2 2 1 [19 0] [12 4]] (REQUEST)
s 0.004118080 _25_ RTR  --- 0 AODV 48 [0 ffffffff c 800] ------- [25:255 -1:255 29 0] [0x2 2 1 [19 0] [12 4]] (REQUEST)
r 0.004897314 _0_ MAC  --- 0 AODV 48 [0 ffffffff 11 800] ------- [17:255 -1:255 29 0] [0x2 2 1 [19 0] [12 4]] (REQUEST)
r 0.004897368 _14_ MAC  --- 0 AODV 48 [0 ffffffff 11 800] ------- [17:255 -1:255 29 0] [0x2 2 1 [19 0] [12 4]] (REQUEST)
r 0.004897472 _13_ MAC  --- 0 AODV 48 [0 ffffffff 11 800] ------- [17:255 -1:255 29 0] [0x2 2 1 [19 0] [12 4]] (REQUEST)
r 0.004897476 _25_ MAC  --- 0 AODV 48 [0 ffffffff 11 800] ------- [17:255 -1:255 29 0] [0x2 2 1 [19 0] [12 4]] (REQUEST)
r 0.004897531 _2_ MAC  --- 0 AODV 48 [0 ffffffff 11 800] ------- [17:255 -1:255 29 0] [0x2 2 1 [19 0] [12 4]] (REQUEST)
r 0.004897588 _16_ MAC  --- 0 AODV 48 [0 ffffffff 11 800] ------- [17:255 -1:255 29 0] [0x2 2 1 [19 0] [12 4]] (REQUEST)
r 0.004897601 _26_ MAC  --- 0 AODV 48 [0 ffffffff 11 800] ------- [17:255 -1:255 29 0] [0x2 2 1 [19 0] [12 4]] (REQUEST)
r 0.004897652 _11_ MAC  --- 0 AODV 48 [0 ffffffff 11 800] ------- [17:255 -1:255 29 0] [0x2 2 1 [19 0] [12 4]] (REQUEST)
r 0.004897723 _7_ MAC  --- 0 AODV 48 [0 ffffffff 11 800] ------- [17:255 -1:255 29 0] [0x2 2 1 [19 0] [12 4]] (REQUEST)
r 0.004897736 _15_ MAC  --- 0 AODV 48 [0 ffffffff 11 800] ------- [17:255 -1:255 29 0] [0x2 2 1 [19 0] [12 4]] (REQUEST)
r 0.004897831 _12_ MAC  --- 0 AODV 48 [0 ffffffff 11 800] ------- [17:255 -1:255 29 0] [0x2 2 1 [19 0] [12 4]] (REQUEST)
r 0.004897833 _3_ MAC  --- 0 AODV 48 [0 ffffffff 11 800] ------- [17:255 -1:255 29 0] [0x2 2 1 [19 0] [12 4]] (REQUEST)
r 0.004897917 _21_ MAC  --- 0 AODV 48 [0 ffffffff 11 800] ------- [17:255 -1:255 29 0] [0x2 2 1 [19 0] [12 4]] (REQUEST)
r 0.004897931 _8_ MAC  --- 0 AODV 48 [0 ffffffff 11 800] ------- [17:255 -1:255 29 0] [0x2 2 1 [19 0] [12 4]] (REQUEST)
r 0.004922314 _0_ RTR  --- 0 AODV 48 [0 ffffffff 11 800] ------- [17:255 -1:255 29 0] [0x2 2 1 [19 0] [12 4]] (REQUEST)
r 0.004922368 _14_ RTR  --- 0 AODV 48 [0 ffffffff 11 800] ------- [17:255 -1:255 29 0] [0x2 2 1 [19 0] [12 4]] (REQUEST)
r 0.004922472 _13_ RTR  --- 0 AODV 48 [0 ffffffff 11 800] ------- [17:255 -1:255 29 0] [0x2 2 1 [19 0] [12 4]] (REQUEST)
r 0.004922476 _25_ RTR  --- 0 AODV 48 [0 ffffffff 11 800] ------- [17:255 -1:255 29 0] [0x2 2 1 [19 0] [12 4]] (REQUEST)
r 0.004922531 _2_ RTR  --- 0 AODV 48 [0 ffffffff 11 800] ------- [17:255 -1:255 29 0] [0x2 2 1 [19 0] [12 4]] (REQUEST)
r 0.004922588 _16_ RTR  --- 0 AODV 48 [0 ffffffff 11 800] ------- [17:255 -1:255 29 0] [0x2 2 1 [19 0] [12 4]] (REQUEST)
r 0.004922601 _26_ RTR  --- 0 AODV 48 [0 ffffffff 11 800] ------- [17:255 -1:255 29 0] [0x2 2 1 [19 0] [12 4]] (REQUEST)
r 0.004922652 _11_ RTR  --- 0 AODV 48 [0 ffffffff 11 800] ------- [17:255 -1:255 29 0] [0x2 2 1 [19 0] [12 4]] (REQUEST)
r 0.004922723 _7_ RTR  --- 0 AODV 48 [0 ffffffff 11 800] ------- [17:255 -1:255 29 0] [0x2 2 1 [19 0] [12 4]] (REQUEST)
r 0.004922736 _15_ RTR  --- 0 AODV 48 [0 ffffffff 11 800] ------- [17:255 -1:255 29 0] [0x2 2 1 [19 0] [12 4]] (REQUEST)
r 0.004922831 _12_ RTR  --- 0 AODV 48 [0 ffffffff 11 800] ------- [17:255 -1:255 29 0] [0x2 2 1 [19 0] [12 4]] (REQUEST)
r 0.004922833 _3_ RTR  --- 0 AODV 48 [0 ffffffff 11 800] ------- [17:255 -1:255 29 0] [0x2 2 1 [19 0] [12 4]] (REQUEST)
r 0.004922917 _21_ RTR  --- 0 AODV 48 [0 ffffffff 11 800] ------- [17:255 -1:255 29 0] [0x2 2 1 [19 0] [12 4]] (REQUEST)
r 0.004922931 _8_ RTR  --- 0 AODV 48 [0 ffffffff 11 800] ------- [17:255 -1:255 29 0] [0x2 2 1 [19 0] [12 4]] (REQUEST)
s 0.005227652 _11_ MAC  --- 0 AODV 106 [0 ffffffff b 800] ------- [11:255 -1:255 29 0] [0x2 2 1 [19 0] [12 4]] (REQUEST)
s 0.005306139 _24_ RTR  --- 0 AODV 48 [0 ffffffff 1b 800] ------- [24:255 -1:255 28 0] [0x2 3 1 [19 0] [12 4]] (REQUEST)
s 0.005400094 _13_ RTR  --- 0 AODV 48 [0 ffffffff c 800] ------- [13:255 -1:255 29 0] [0x2 2 1 [19 0] [12 4]] (REQUEST)
r 0.006075852 _3_ MAC  --- 0 AODV 48 [0 ffffffff b 800] ------- [11:255 -1:255 29 0] [0x2 2 1 [19 0] [12 4]] (REQUEST)
r 0.006075863 _2_ MAC  --- 0 AODV 48 [0 ffffffff b 800] ------- [11:255 -1:255 29 0] [0x2 2 1 [19 0] [12 4]] (REQUEST)
r 0.006075878 _25_ MAC  --- 0 AODV 48 [0 ffffffff b 800] ------- [11:255 -1:255 29 0] [0x2 2 1 [19 0] [12 4]] (REQUEST)
r 0.006075920 _21_ MAC  --- 0 AODV 48 [0 ffffffff b 800] ------- [11:255 -1:255 29 0] [0x2 2 1 [19 0] [12 4]] (REQUEST)
r 0.006075996 _14_ MAC  --- 0 AODV 48 [0 ffffffff b 800] ------- [11:255 -1:255 29 0] [0x2 2 1 [19 0] [12 4]] (REQUEST)
r 0.006076060 _15_ MAC  --- 0 AODV 48 [0 ffffffff b 800] ------- [11:255 -1:255 29 0] [0x2 2 1 [19 0] [12 4]] (REQUEST)
r 0.006076086 _1_ MAC  --- 0 AODV 48 [0 ffffffff b 800] ------- [11:255 -1:255 29 0] [0x2 2 1 [19 0] [12 4]] (REQUEST)
r 0.006076094 _13_ MAC  --- 0 AODV 48 [0 ffffffff b 800] ------- [11:255 -1:255 29 0] [0x2 2 1 [19 0] [12 4]] (REQUEST)
r 0.006076145 _26_ MAC  --- 0 AODV 48 [0 ffffffff b 800] ------- [11:255 -1:255 29 0] [0x2 2 1 [19 0] [12 4]] (REQUEST)
r 0.006076152 _7_ MAC  --- 0 AODV 48 [0 ffffffff b 800] ------- [11:255 -1:255 29 0] [0x2 2 1 [19 0] [12 4]] (REQUEST)
r 0.006076188 _0_ MAC  --- 0 AODV 48 [0 ffffffff b 800] ------- [11:255 -1:255 29 0] [0x2 2 1 [19 0] [12 4]] (REQUEST)
r 0.006076199 _17_ MAC  --- 0 AODV 48 [0 ffffffff b 800] ------- [11:255 -1:255 29 0] [0x2 2 1 [19 0] [12 4]] (REQUEST)
r 0.006076217 _6_ MAC  --- 0 AODV 48 [0 ffffffff b 800] ------- [11:255 -1:255 29 0] [0x2 2 1 [19 0] [12 4]] (REQUEST)
r 0.006076227 _12_ MAC  --- 0 AODV 48 [0 ffffffff b 800] ------- [11:255 -1:255 29 0] [0x2 2 1 [19 0] [12 4]] (REQUEST)
r 0.006076233 _8_ MAC  --- 0 AODV 48 [0 ffffffff b 800] ------- [11:255 -1:255 29 0] [0x2 2 1 [19 0] [12 4]] (REQUEST)
r 0.006076252 _20_ MAC  --- 0 AODV 48 [0 ffffffff b 800] ------- [11:255 -1:255 29 0] [0x2 2 1 [19 0] [12 4]] (REQUEST)
r 0.006076318 _16_ MAC  --- 0 AODV 48 [0 ffffffff b 800] ------- [11:255 -1:255 29 0] [0x2 2 1 [19 0] [12 4]] (REQUEST)
r 0.006076337 _28_ MAC  --- 0 AODV 48 [0 ffffffff b 800] ------- [11:255 -1:255 29 0] [0x2 2 1 [19 0] [12 4]] (REQUEST)
r 0.006076342 _10_ MAC  --- 0 AODV 48 [0 ffffffff b 800] ------- [11:255 -1:255 29 0] [0x2 2 1 [19 0] [12 4]] (REQUEST)
r 0.006076370 _24_ MAC  --- 0 AODV 48 [0 ffffffff b 800] ------- [11:255 -1:255 29 0] [0x2 2 1 [19 0] [12 4]] (REQUEST)
r 0.006076375 _18_ MAC  --- 0 AODV 48 [0 ffffffff b 800] ------- [11:255 -1:255 29 0] [0x2 2 1 [19 0] [12 4]] (REQUEST)
r 0.006076393 _5_ MAC  --- 0 AODV 48 [0 ffffffff b 800] ------- [11:255 -1:255 29 0] [0x2 2 1 [19 0] [12 4]] (REQUEST)
r 0.006076397 _27_ MAC  --- 0 AODV 48 [0 ffffffff b 800] ------- [11:255 -1:255 29 0] [0x2 2 1 [19 0] [12 4]] (REQUEST)
r 0.006076446 _4_ MAC  --- 0 AODV 48 [0 ffffffff b 800] ------- [11:255 -1:255 29 0] [0x2 2 1 [19 0] [12 4]] (REQUEST)
r 0.006100852 _3_ RTR  --- 0 AODV 48 [0 ffffffff b 800] ------- [11:255 -1:255 29 0] [0x2 2 1 [19 0] [12 4]] (REQUEST)
r 0.006100863 _2_ RTR  --- 0 AODV 48 [0 ffffffff b 800] ------- [11:255 -1:255 29 0] [0x2 2 1 [19 0] [12 4]] (REQUEST)
r 0.006100878 _25_ RTR  --- 0 AODV 48 [0 ffffffff b 800] ------- [11:255 -1:255 29 0] [0x2 2 1 [19 0] [12 4]] (REQUEST)
r 0.006100920 _21_ RTR  --- 0 AODV 48 [0 ffffffff b 800] ------- [11:255 -1:255 29 0] [0x2 2 1 [19 0] [12 4]] (REQUEST)
r 0.006100996 _14_ RTR  --- 0 AODV 48 [0 ffffffff b 800] ------- [11:255 -1:255 29 0] [0x2 2 1 [19 0] [12 4]] (REQUEST)
r 0.006101060 _15_ RTR  --- 0 AODV 48 [0 ffffffff b 800] ------- [11:255 -1:255 29 0] [0x2 2 1 [19 0] [12 4]] (REQUEST)
r 0.006101086 _1_ RTR  --- 0 AODV 48 [0 ffffffff b 800] ------- [11:255 -1:255 29 0] [0x2 2 1 [19 0] [12 4]] (REQUEST)
r 0.006101094 _13_ RTR  --- 0 AODV 48 [0 ffffffff b 800] ------- [11:255 -1:255 29 0] [0x2 2 1 [19 0] [12 4]] (REQUEST)
r 0.006101145 _26_ RTR  --- 0 AODV 48 [0 ffffffff b 800] ------- [11:255 -1:255 29 0] [0x2 2 1 [19 0] [12 4]] (REQUEST)
r 0.006101152 _7_ RTR  --- 0 AODV 48 [0 ffffffff b 800] ------- [11:255 -1:255 29 0] [0x2 2 1 [19 0] [12 4]] (REQUEST)
r 0.006101188 _0_ RTR  --- 0 AODV 48 [0 ffffffff b 800] ------- [11:255 -1:255 29 0] [0x2 2 1 [19 0] [12 4]] (REQUEST)
r 0.006101199 _17_ RTR  --- 0 AODV 48 [0 ffffffff b 800] ------- [11:255 -1:255 29 0] [0x2 2 1 [19 0] [12 4]] (REQUEST)
r 0.006101217 _6_ RTR  --- 0 AODV 48 [0 ffffffff b 800] ------- [11:255 -1:255 29 0] [0x2 2 1 [19 0] [12 4]] (REQUEST)
r 0.006101227 _12_ RTR  --- 0 AODV 48 [0 ffffffff b 800] ------- [11:255 -1:255 29 0] [0x2 2 1 [19 0] [12 4]] (REQUEST)
r 0.006101233 _8_ RTR  --- 0 AODV 48 [0 ffffffff b 800] ------- [11:255 -1:255 29 0] [0x2 2 1 [19 0] [12 4]] (REQUEST)
r 0.006101252 _20_ RTR  --- 0 AODV 48 [0 ffffffff b 800] ------- [11:255 -1:255 29 0] [0x2 2 1 [19 0] [12 4]] (REQUEST)
r 0.006101318 _16_ RTR  --- 0 AODV 48 [0 ffffffff b 800] ------- [11:255 -1:255 29 0] [0x2 2 1 [19 0] [12 4]] (REQUEST)
r 0.006101337 _28_ RTR  --- 0 AODV 48 [0 ffffffff b 800] ------- [11:255 -1:255 29 0] [0x2 2 1 [19 0] [12 4]] (REQUEST)
r 0.006101342 _10_ RTR  --- 0 AODV 48 [0 ffffffff b 800] ------- [11:255 -1:255 29 0] [0x2 2 1 [19 0] [12 4]] (REQUEST)
r 0.006101370 _24_ RTR  --- 0 AODV 48 [0 ffffffff b 800] ------- [11:255 -1:255 29 0] [0x2 2 1 [19 0] [12 4]] (REQUEST)
r 0.006101375 _18_ RTR  --- 0 AODV 48 [0 ffffffff b 800] ------- [11:255 -1:255 29 0] [0x2 2 1 [19 0] [12 4]] (REQUEST)
r 0.006101393 _5_ RTR  --- 0 AODV 48 [0 ffffffff b 800] ------- [11:255 -1:255 29 0] [0x2 2 1 [19 0] [12 4]] (REQUEST)
r 0.006101397 _27_ RTR  --- 0 AODV 48 [0 ffffffff b 800] ------- [11:255 -1:255 29 0] [0x2 2 1 [19 0] [12 4]] (REQUEST)
r 0.006101446 _4_ RTR  --- 0 AODV 48 [0 ffffffff b 800] ------- [11:255 -1:255 29 0] [0x2 2 1 [19 0] [12 4]] (REQUEST)
s 0.006146337 _28_ MAC  --- 0 AODV 106 [0 ffffffff 1c 800] ------- [28:255 -1:255 28 0] [0x2 3 1 [19 0] [12 4]] (REQUEST)
s 0.006212567 _22_ RTR  --- 0 AODV 48 [0 ffffffff 1b 800] ------- [22:255 -1:255 28 0] [0x2 3 1 [19 0] [12 4]] (REQUEST)
s 0.006812200 _29_ RTR  --- 0 AODV 48 [0 ffffffff 1b 800] ------- [29:255 -1:255 28 0] [0x2 3 1 [19 0] [12 4]] (REQUEST)
r 0.006994453 _4_ MAC  --- 0 AODV 48 [0 ffffffff 1c 800] ------- [28:255 -1:255 28 0] [0x2 3 1 [19 0] [12 4]] (REQUEST)
r 0.006994575 _24_ MAC  --- 0 AODV 48 [0 ffffffff 1c 800] ------- [28:255 -1:255 28 0] [0x2 3 1 [19 0] [12 4]] (REQUEST)
r 0.006994626 _22_ MAC  --- 0 AODV 48 [0 ffffffff 1c 800] ------- [28:255 -1:255 28 0] [0x2 3 1 [19 0] [12 4]] (REQUEST)
r 0.006994664 _1_ MAC  --- 0 AODV 48 [0 ffffffff 1c 800] ------- [28:255 -1:255 28 0] [0x2 3 1 [19 0] [12 4]] (REQUEST)
r 0.006994683 _27_ MAC  --- 0 AODV 48 [0 ffffffff 1c 800] ------- [28:255 -1:255 28 0] [0x2 3 1 [19 0] [12 4]] (REQUEST)
r 0.006994717 _29_ MAC  --- 0 AODV 48 [0 ffffffff 1c 800] ------- [28:255 -1:255 28 0] [0x2 3 1 [19 0] [12 4]] (REQUEST)
r 0.006994741 _5_ MAC  --- 0 AODV 48 [0 ffffffff 1c 800] ------- [28:255 -1:255 28 0] [0x2 3 1 [19 0] [12 4]] (REQUEST)
r 0.006994755 _21_ MAC  --- 0 AODV 48 [0 ffffffff 1c 800] ------- [28:255 -1:255 28 0] [0x2 3 1 [19 0] [12 4]] (REQUEST)
r 0.006994772 _20_ MAC  --- 0 AODV 48 [0 ffffffff 1c 800] ------- [28:255 -1:255 28 0] [0x2 3 1 [19 0] [12 4]] (REQUEST)
r 0.006994870 _3_ MAC  --- 0 AODV 48 [0 ffffffff 1c 800] ------- [28:255 -1:255 28 0] [0x2 3 1 [19 0] [12 4]] (REQUEST)
r 0.006994973 _6_ MAC  --- 0 AODV 48 [0 ffffffff 1c 800] ------- [28:255 -1:255 28 0] [0x2 3 1 [19 0] [12 4]] (REQUEST)
r 0.006995022 _11_ MAC  --- 0 AODV 48 [0 ffffffff 1c 800] ------- [28:255 -1:255 28 0] [0x2 3 1 [19 0] [12 4]] (REQUEST)
r 0.006995154 _8_ MAC  --- 0 AODV 48 [0 ffffffff 1c 800] ------- [28:255 -1:255 28 0] [0x2 3 1 [19 0] [12 4]] (REQUEST)
r 0.007019453 _4_ RTR  --- 0 AODV 48 [0 ffffffff 1c 800] ------- [28:255 -1:255 28 0] [0x2 3 1 [19 0] [12 4]] (REQUEST)
r 0.007019575 _24_ RTR  --- 0 AODV 48 [0 ffffffff 1c 800] ------- [28:255 -1:255 28 0] [0x2 3 1 [19 0] [12 4]] (REQUEST)
r 0.007019626 _22_ RTR  --- 0 AODV 48 [0 ffffffff 1c 800] ------- [28:255 -1:255 28 0] [0x2 3 1 [19 0] [12 4]] (REQUEST)
r 0.007019664 _1_ RTR  --- 0 AODV 48 [0 ffffffff 1c 800] ------- [28:255 -1:255 28 0] [0x2 3 1 [19 0] [12 4]] (REQUEST)
r 0.007019683 _27_ RTR  --- 0 AODV 48 [0 ffffffff 1c 800] ------- [28:255 -1:255 28 0] [0x2 3 1 [19 0] [12 4]] (REQUEST)
r 0.007019717 _29_ RTR  --- 0 AODV 48 [0 ffffffff 1c 800] ------- [28:255 -1:255 28 0] [0x2 3 1 [19 0] [12 4]] (REQUEST)
r 0.007019741 _5_ RTR  --- 0 AODV 48 [0 ffffffff 1c 800] ------- [28:255 -1:255 28 0] [0x2 3 1 [19 0] [12 4]] (REQUEST)
r 0.007019755 _21_ RTR  --- 0 AODV 48 [0 ffffffff 1c 800] ------- [28:255 -1:255 28 0] [0x2 3 1 [19 0] [12 4]] (REQUEST)
r 0.007019772 _20_ RTR  --- 0 AODV 48 [0 ffffffff 1c 800] ------- [28:255 -1:255 28 0] [0x2 3 1 [19 0] [12 4]] (REQUEST)
r 0.007019870 _3_ RTR  --- 0 AODV 48 [0 ffffffff 1c 800] ------- [28:255 -1:255 28 0] [0x2 3 1 [19 0] [12 4]] (REQUEST)
r 0.007019973 _6_ RTR  --- 0 AODV 48 [0 ffffffff 1c 800] ------- [28:255 -1:255 28 0] [0x2 3 1 [19 0] [12 4]] (REQUEST)
r 0.007020022 _11_ RTR  --- 0 AODV 48 [0 ffffffff 1c 800] ------- [28:255 -1:255 28 0] [0x2 3 1 [19 0] [12 4]] (REQUEST)
r 0.007020154 _8_ RTR  --- 0 AODV 48 [0 ffffffff 1c 800] ------- [28:255 -1:255 28 0] [0x2 3 1 [19 0] [12 4]] (REQUEST)
s 0.007104717 _29_ MAC  --- 0 AODV 106 [0 ffffffff 1d 800] ------- [29:255 -1:255 28 0] [0x2 3 1 [19 0] [12 4]] (REQUEST)
s 0.007377250 _1_ RTR  --- 0 AODV 48 [0 ffffffff c 800] ------- [1:255 -1:255 29 0] [0x2 2 1 [19 0] [12 4]] (REQUEST)
s 0.007389412 _14_ RTR  --- 0 AODV 48 [0 ffffffff c 800] ------- [14:255 -1:255 29 0] [0x2 2 1 [19 0] [12 4]] (REQUEST)
s 0.007911910 _5_ RTR  --- 0 AODV 48 [0 ffffffff 1b 800] ------- [5:255 -1:255 28 0] [0x2 3 1 [19 0] [12 4]] (REQUEST)
r 0.007952939 _22_ MAC  --- 0 AODV 48 [0 ffffffff 1d 800] ------- [29:255 -1:255 28 0] [0x2 3 1 [19 0] [12 4]] (REQUEST)
r 0.007952990 _4_ MAC  --- 0 AODV 48 [0 ffffffff 1d 800] ------- [29:255 -1:255 28 0] [0x2 3 1 [19 0] [12 4]] (REQUEST)
r 0.007953018 _24_ MAC  --- 0 AODV 48 [0 ffffffff 1d 800] ------- [29:255 -1:255 28 0] [0x2 3 1 [19 0] [12 4]] (REQUEST)
r 0.007953097 _28_ MAC  --- 0 AODV 48 [0 ffffffff 1d 800] ------- [29:255 -1:255 28 0] [0x2 3 1 [19 0] [12 4]] (REQUEST)
r 0.007953106 _5_ MAC  --- 0 AODV 48 [0 ffffffff 1d 800] ------- [29:255 -1:255 28 0] [0x2 3 1 [19 0] [12 4]] (REQUEST)
r 0.007953385 _27_ MAC  --- 0 AODV 48 [0 ffffffff 1d 800] ------- [29:255 -1:255 28 0] [0x2 3 1 [19 0] [12 4]] (REQUEST)
r 0.007953422 _1_ MAC  --- 0 AODV 48 [0 ffffffff 1d 800] ------- [29:255 -1:255 28 0] [0x2 3 1 [19 0] [12 4]] (REQUEST)
r 0.007953445 _23_ MAC  --- 0 AODV 48 [0 ffffffff 1d 800] ------- [29:255 -1:255 28 0] [0x2 3 1 [19 0] [12 4]] (REQUEST)
r 0.007953459 _6_ MAC  --- 0 AODV 48 [0 ffffffff 1d 800] ------- [29:255 -1:255 28 0] [0x2 3 1 [19 0] [12 4]] (REQUEST)
r 0.007953476 _21_ MAC  --- 0 AODV 48 [0 ffffffff 1d 800] ------- [29:255 -1:255 28 0] [0x2 3 1 [19 0] [12 4]] (REQUEST)
r 0.007953519 _20_ MAC  --- 0 AODV 48 [0 ffffffff 1d 800] ------- [29:255 -1:255 28 0] [0x2 3 1 [19 0] [12 4]] (REQUEST)
r 0.007953541 _3_ MAC  --- 0 AODV 48 [0 ffffffff 1d 800] ------- [29:255 -1:255 28 0] [0x2 3 1 [19 0] [12 4]] (REQUEST)
r 0.007977939 _22_ RTR  --- 0 AODV 48 [0 ffffffff 1d 800] ------- [29:255 -1:255 28 0] [0x2 3 1 [19 0] [12 4]] (REQUEST)
r 0.007977990 _4_ RTR  --- 0 AODV 48 [0 ffffffff 1d 800] ------- [29:255 -1:255 28 0] [0x2 3 1 [19 0] [12 4]] (REQUEST)
r 0.007978018 _24_ RTR  --- 0 AODV 48 [0 ffffffff 1d 800] ------- [29:255 -1:255 28 0] [0x2 3 1 [19 0] [12 4]] (REQUEST)
r 0.007978097 _28_ RTR  --- 0 AODV 48 [0 ffffffff 1d 800] ------- [29:255 -1:255 28 0] [0x2 3 1 [19 0] [12 4]] (REQUEST)
r 0.007978106 _5_ RTR  --- 0 AODV 48 [0 ffffffff 1d 800] ------- [29:255 -1:255 28 0] [0x2 3 1 [19 0] [12 4]] (REQUEST)
r 0.007978385 _27_ RTR  --- 0 AODV 48 [0 ffffffff 1d 800] ------- [29:255 -1:255 28 0] [0x2 3 1 [19 0] [12 4]] (REQUEST)
r 0.007978422 _1_ RTR  --- 0 AODV 48 [0 ffffffff 1d 800] ------- [29:255 -1:255 28 0] [0x2 3 1 [19 0] [12 4]] (REQUEST)
r 0.007978445 _23_ RTR  --- 0 AODV 48 [0 ffffffff 1d 800] ------- [29:255 -1:255 28 0] [0x2 3 1 [19 0] [12 4]] (REQUEST)
r 0.007978459 _6_ RTR  --- 0 AODV 48 [0 ffffffff 1d 800] ------- [29:255 -1:255 28 0] [0x2 3 1 [19 0] [12 4]] (REQUEST)
r 0.007978476 _21_ RTR  --- 0 AODV 48 [0 ffffffff 1d 800] ------- [29:255 -1:255 28 0] [0x2 3 1 [19 0] [12 4]] (REQUEST)
r 0.007978519 _20_ RTR  --- 0 AODV 48 [0 ffffffff 1d 800] ------- [29:255 -1:255 28 0] [0x2 3 1 [19 0] [12 4]] (REQUEST)
r 0.007978541 _3_ RTR  --- 0 AODV 48 [0 ffffffff 1d 800] ------- [29:255 -1:255 28 0] [0x2 3 1 [19 0] [12 4]] (REQUEST)
s 0.008043476 _21_ MAC  --- 0 AODV 106 [0 ffffffff 15 800] ------- [21:255 -1:255 29 0] [0x2 2 1 [19 0] [12 4]] (REQUEST)
r 0.008891649 _3_ MAC  --- 0 AODV 48 [0 ffffffff 15 800] ------- [21:255 -1:255 29 0] [0x2 2 1 [19 0] [12 4]] (REQUEST)
r 0.008891670 _1_ MAC  --- 0 AODV 48 [0 ffffffff 15 800] ------- [21:255 -1:255 29 0] [0x2 2 1 [19 0] [12 4]] (REQUEST)
r 0.008891744 _11_ MAC  --- 0 AODV 48 [0 ffffffff 15 800] ------- [21:255 -1:255 29 0] [0x2 2 1 [19 0] [12 4]] (REQUEST)
r 0.008891881 _20_ MAC  --- 0 AODV 48 [0 ffffffff 15 800] ------- [21:255 -1:255 29 0] [0x2 2 1 [19 0] [12 4]] (REQUEST)
r 0.008891894 _28_ MAC  --- 0 AODV 48 [0 ffffffff 15 800] ------- [21:255 -1:255 29 0] [0x2 2 1 [19 0] [12 4]] (REQUEST)
r 0.008891899 _2_ MAC  --- 0 AODV 48 [0 ffffffff 15 800] ------- [21:255 -1:255 29 0] [0x2 2 1 [19 0] [12 4]] (REQUEST)
r 0.008891938 _25_ MAC  --- 0 AODV 48 [0 ffffffff 15 800] ------- [21:255 -1:255 29 0] [0x2 2 1 [19 0] [12 4]] (REQUEST)
r 0.008891962 _24_ MAC  --- 0 AODV 48 [0 ffffffff 15 800] ------- [21:255 -1:255 29 0] [0x2 2 1 [19 0] [12 4]] (REQUEST)
r 0.008891983 _27_ MAC  --- 0 AODV 48 [0 ffffffff 15 800] ------- [21:255 -1:255 29 0] [0x2 2 1 [19 0] [12 4]] (REQUEST)
r 0.008891991 _6_ MAC  --- 0 AODV 48 [0 ffffffff 15 800] ------- [21:255 -1:255 29 0] [0x2 2 1 [19 0] [12 4]] (REQUEST)
r 0.008892006 _4_ MAC  --- 0 AODV 48 [0 ffffffff 15 800] ------- [21:255 -1:255 29 0] [0x2 2 1 [19 0] [12 4]] (REQUEST)
r 0.008892029 _5_ MAC  --- 0 AODV 48 [0 ffffffff 15 800] ------- [21:255 -1:255 29 0] [0x2 2 1 [19 0] [12 4]] (REQUEST)
r 0.008892036 _15_ MAC  --- 0 AODV 48 [0 ffffffff 15 800] ------- [21:255 -1:255 29 0] [0x2 2 1 [19 0] [12 4]] (REQUEST)
r 0.008892049 _8_ MAC  --- 0 AODV 48 [0 ffffffff 15 800] ------- [21:255 -1:255 29 0] [0x2 2 1 [19 0] [12 4]] (REQUEST)
r 0.008892086 _14_ MAC  --- 0 AODV 48 [0 ffffffff 15 800] ------- [21:255 -1:255 29 0] [0x2 2 1 [19 0] [12 4]] (REQUEST)
r 0.008892103 _12_ MAC  --- 0 AODV 48 [0 ffffffff 15 800] ------- [21:255 -1:255 29 0] [0x2 2 1 [19 0] [12 4]] (REQUEST)
r 0.008892116 _13_ MAC  --- 0 AODV 48 [0 ffffffff 15 800] ------- [21:255 -1:255 29 0] [0x2 2 1 [19 0] [12 4]] (REQUEST)
r 0.008892149 _7_ MAC  --- 0 AODV 48 [0 ffffffff 15 800] ------- [21:255 -1:255 29 0] [0x2 2 1 [19 0] [12 4]] (REQUEST)
r 0.008892170 _10_ MAC  --- 0 AODV 48 [0 ffffffff 15 800] ------- [21:255 -1:255 29 0] [0x2 2 1 [19 0] [12 4]] (REQUEST)
r 0.008892183 _22_ MAC  --- 0 AODV 48 [0 ffffffff 15 800] ------- [21:255 -1:255 29 0] [0x2 2 1 [19 0] [12 4]] (REQUEST)
r 0.008892183 _26_ MAC  --- 0 AODV 48 [0 ffffffff 15 800] ------- [21:255 -1:255 29 0] [0x2 2 1 [19 0] [12 4]] (REQUEST)