s 0.000000000 _12_ AGT  --- 0 tcp 40 [0 0 0 0] ------- [12:0 19:0 32 0] [0 0] 0 0
r 0.000000000 _12_ RTR  --- 0 tcp 40 [0 0 0 0] ------- [12:0 19:0 32 0] [0 0] 0 0
s 0.000000000 _12_ RTR  --- 0 AODV 48 [0 0 0 0] ------- [12:255 -1:255 30 0] [0x2 1 1 [19 0] [12 4]] (REQUEST)
s 0.000115000 _12_ MAC  --- 0 AODV 106 [0 ffffffff c 800] ------- [12:255 -1:255 30 0] [0x2 1 1 [19 0] [12 4]] (REQUEST)
r 0.000963263 _4_ MAC  --- 0 AODV 48 [0 ffffffff c 800] ------- [12:255 -1:255 30 0] [0x2 1 1 [19 0] [12 4]] (REQUEST)
r 0.000963280 _21_ MAC  --- 0 AODV 48 [0 ffffffff c 800] ------- [12:255 -1:255 30 0] [0x2 1 1 [19 0] [12 4]] (REQUEST)
r 0.000963306 _1_ MAC  --- 0 AODV 48 [0 ffffffff c 800] ------- [12:255 -1:255 30 0] [0x2 1 1 [19 0] [12 4]] (REQUEST)
r 0.000963312 _39_ MAC  --- 0 AODV 48 [0 ffffffff c 800] ------- [12:255 -1:255 30 0] [0x2 1 1 [19 0] [12 4]] (REQUEST)
r 0.000963360 _13_ MAC  --- 0 AODV 48 [0 ffffffff c 800] ------- [12:255 -1:255 30 0] [0x2 1 1 [19 0] [12 4]] (REQUEST)
r 0.000963373 _0_ MAC  --- 0 AODV 48 [0 ffffffff c 800] ------- [12:255 -1:255 30 0] [0x2 1 1 [19 0] [12 4]] (REQUEST)
r 0.000963462 _25_ MAC  --- 0 AODV 48 [0 ffffffff c 800] ------- [12:255 -1:255 30 0] [0x2 1 1 [19 0] [12 4]] (REQUEST)
r 0.000963530 _36_ MAC  --- 0 AODV 48 [0 ffffffff c 800] ------- [12:255 -1:255 30 0] [0x2 1 1 [19 0] [12 4]] (REQUEST)
r 0.000963538 _20_ MAC  --- 0 AODV 48 [0 ffffffff c 800] ------- [12:255 -1:255 30 0] [0x2 1 1 [19 0] [12 4]] (REQUEST)
r 0.000963576 _11_ MAC  --- 0 AODV 48 [0 ffffffff c 800] ------- [12:255 -1:255 30 0] [0x2 1 1 [19 0] [12 4]] (REQUEST)
r 0.000963601 _31_ MAC  --- 0 AODV 48 [0 ffffffff c 800] ------- [12:255 -1:255 30 0] [0x2 1 1 [19 0] [12 4]] (REQUEST)
r 0.000963727 _17_ MAC  --- 0 AODV 48 [0 ffffffff c 800] ------- [12:255 -1:255 30 0] [0x2 1 1 [19 0] [12 4]] (REQUEST)
r 0.000963730 _27_ MAC  --- 0 AODV 48 [0 ffffffff c 800] ------- [12:255 -1:255 30 0] [0x2 1 1 [19 0] [12 4]] (REQUEST)
r 0.000963735 _14_ MAC  --- 0 AODV 48 [0 ffffffff c 800] ------- [12:255 -1:255 30 0] [0x2 1 1 [19 0] [12 4]] (REQUEST)
r 0.000963813 _3_ MAC  --- 0 AODV 48 [0 ffffffff c 800] ------- [12:255 -1:255 30 0] [0x2 1 1 [19 0] [12 4]] (REQUEST)
r 0.000988263 _4_ RTR  --- 0 AODV 48 [0 ffffffff c 800] ------- [12:255 -1:255 30 0] [0x2 1 1 [19 0] [12 4]] (REQUEST)
r 0.000988280 _21_ RTR  --- 0 AODV 48 [0 ffffffff c 800] ------- [12:255 -1:255 30 0] [0x2 1 1 [19 0] [12 4]] (REQUEST)
r 0.000988306 _1_ RTR  --- 0 AODV 48 [0 ffffffff c 800] ------- [12:255 -1:255 30 0] [0x2 1 1 [19 0] [12 4]] (REQUEST)
r 0.000988312 _39_ RTR  --- 0 AODV 48 [0 ffffffff c 800] ------- [12:255 -1:255 30 0] [0x2 1 1 [19 0] [12 4]] (REQUEST)
r 0.000988360 _13_ RTR  --- 0 AODV 48 [0 ffffffff c 800] ------- [12:255 -1:255 30 0] [0x2 1 1 [19 0] [12 4]] (REQUEST)
r 0.000988373 _0_ RTR  --- 0 AODV 48 [0 ffffffff c 800] ------- [12:255 -1:255 30 0] [0x2 1 1 [19 0] [12 4]] (REQUEST)
r 0.000988462 _25_ RTR  --- 0 AODV 48 [0 ffffffff c 800] ------- [12:255 -1:255 30 0] [0x2 1 1 [19 0] [12 4]] (REQUEST)
r 0.000988530 _36_ RTR  --- 0 AODV 48 [0 ffffffff c 800] ------- [12:255 -1:255 30 0] [0x2 1 1 [19 0] [12 4]] (REQUEST)
r 0.000988538 _20_ RTR  --- 0 AODV 48 [0 ffffffff c 800] ------- [12:255 -1:255 30 0] [0x2 1 1 [19 0] [12 4]] (REQUEST)
r 0.000988576 _11_ RTR  --- 0 AODV 48 [0 ffffffff c 800] ------- [12:255 -1:255 30 0] [0x2 1 1 [19 0] [12 4]] (REQUEST)
r 0.000988601 _31_ RTR  --- 0 AODV 48 [0 ffffffff c 800] ------- [12:255 -1:255 30 0] [0x2 1 1 [19 0] [12 4]] (REQUEST)
r 0.000988727 _17_ RTR  --- 0 AODV 48 [0 ffffffff c 800] ------- [12:255 -1:255 30 0] [0x2 1 1 [19 0] [12 4]] (REQUEST)
r 0.000988730 _27_ RTR  --- 0 AODV 48 [0 ffffffff c 800] ------- [12:255 -1:255 30 0] [0x2 1 1 [19 0] [12 4]] (REQUEST)
r 0.000988735 _14_ RTR  --- 0 AODV 48 [0 ffffffff c 800] ------- [12:255 -1:255 30 0] [0x2 1 1 [19 0] [12 4]] (REQUEST)
r 0.000988813 _3_ RTR  --- 0 AODV 48 [0 ffffffff c 800] ------- [12:255 -1:255 30 0] [0x2 1 1 [19 0] [12 4]] (REQUEST)
s 0.001416546 _31_ RTR  --- 0 AODV 48 [0 ffffffff c 800] ------- [31:255 -1:255 29 0] [0x2 2 1 [19 0] [12 4]] (REQUEST)
s 0.001869489 _4_ RTR  --- 0 AODV 48 [0 ffffffff c 800] ------- [4:255 -1:255 29 0] [0x2 2 1 [19 0] [12 4]] (REQUEST)
s 0.001971546 _31_ MAC  --- 0 AODV 106 [0 ffffffff 1f 800] ------- [31:255 -1:255 29 0] [0x2 2 1 [19 0] [12 4]] (REQUEST)
s 0.002126812 _27_ RTR  --- 0 AODV 48 [0 ffffffff c 800] ------- [27:255 -1:255 29 0] [0x2 2 1 [19 0] [12 4]] (REQUEST)
s 0.002630030 _11_ RTR  --- 0 AODV 48 [0 ffffffff c 800] ------- [11:255 -1:255 29 0] [0x2 2 1 [19 0] [12 4]] (REQUEST)
r 0.002819756 _11_ MAC  --- 0 AODV 48 [0 ffffffff 1f 800] ------- [31:255 -1:255 29 0] [0x2 2 1 [19 0] [12 4]] (REQUEST)
r 0.002819803 _36_ MAC  --- 0 AODV 48 [0 ffffffff 1f 800] ------- [31:255 -1:255 29 0] [0x2 2 1 [19 0] [12 4]] (REQUEST)
r 0.002819833 _3_ MAC  --- 0 AODV 48 [0 ffffffff 1f 800] ------- [31:255 -1:255 29 0] [0x2 2 1 [19 0] [12 4]] (REQUEST)
r 0.002819873 _5_ MAC  --- 0 AODV 48 [0 ffffffff 1f 800] ------- [31:255 -1:255 29 0] [0x2 2 1 [19 0] [12 4]] (REQUEST)
r 0.002819876 _1_ MAC  --- 0 AODV 48 [0 ffffffff 1f 800] ------- [31:255 -1:255 29 0] [0x2 2 1 [19 0] [12 4]] (REQUEST)
r 0.002819923 _21_ MAC  --- 0 AODV 48 [0 ffffffff 1f 800] ------- [31:255 -1:255 29 0] [0x2 2 1 [19 0] [12 4]] (REQUEST)
r 0.002819951 _25_ MAC  --- 0 AODV 48 [0 ffffffff 1f 800] ------- [31:255 -1:255 29 0] [0x2 2 1 [19 0] [12 4]] (REQUEST)
r 0.002819984 _20_ MAC  --- 0 AODV 48 [0 ffffffff 1f 800] ------- [31:255 -1:255 29 0] [0x2 2 1 [19 0] [12 4]] (REQUEST)
r 0.002820047 _6_ MAC  --- 0 AODV 48 [0 ffffffff 1f 800] ------- [31:255 -1:255 29 0] [0x2 2 1 [19 0] [12 4]] (REQUEST)
r 0.002820070 _15_ MAC  --- 0 AODV 48 [0 ffffffff 1f 800] ------- [31:255 -1:255 29 0] [0x2 2 1 [19 0] [12 4]] (REQUEST)
r 0.002820077 _39_ MAC  --- 0 AODV 48 [0 ffffffff 1f 800] ------- [31:255 -1:255 29 0] [0x2 2 1 [19 0] [12 4]] (REQUEST)
r 0.002820084 _24_ MAC  --- 0 AODV 48 [0 ffffffff 1f 800] ------- [31:255 -1:255 29 0] [0x2 2 1 [19 0] [12 4]] (REQUEST)
r 0.002820099 _14_ MAC  --- 0 AODV 48 [0 ffffffff 1f 800] ------- [31:255 -1:255 29 0] [0x2 2 1 [19 0] [12 4]] (REQUEST)
r 0.002820100 _27_ MAC  --- 0 AODV 48 [0 ffffffff 1f 800] ------- [31:255 -1:255 29 0] [0x2 2 1 [19 0] [12 4]] (REQUEST)
r 0.002820108 _28_ MAC  --- 0 AODV 48 [0 ffffffff 1f 800] ------- [31:255 -1:255 29 0] [0x2 2 1 [19 0] [12 4]] (REQUEST)
r 0.002820135 _13_ MAC  --- 0 AODV 48 [0 ffffffff 1f 800] ------- [31:255 -1:255 29 0] [0x2 2 1 [19 0] [12 4]] (REQUEST)
r 0.002820147 _12_ MAC  --- 0 AODV 48 [0 ffffffff 1f 800] ------- [31:255 -1:255 29 0] [0x2 2 1 [19 0] [12 4]] (REQUEST)
r 0.002820199 _2_ MAC  --- 0 AODV 48 [0 ffffffff 1f 800] ------- [31:255 -1:255 29 0] [0x2 2 1 [19 0] [12 4]] (REQUEST)
r 0.002820207 _26_ MAC  --- 0 AODV 48 [0 ffffffff 1f 800] ------- [31:255 -1:255 29 0] [0x2 2 1 [19 0] [12 4]] (REQUEST)
r 0.002820237 _10_ MAC  --- 0 AODV 48 [0 ffffffff 1f 800] ------- [31:255 -1:255 29 0] [0x2 2 1 [19 0] [12 4]] (REQUEST)
r 0.002820237 _32_ MAC  --- 0 AODV 48 [0 ffffffff 1f 800] ------- [31:255 -1:255 29 0] [0x2 2 1 [19 0] [12 4]] (REQUEST)
r 0.002820264 _0_ MAC  --- 0 AODV 48 [0 ffffffff 1f 800] ------- [31:255 -1:255 29 0] [0x2 2 1 [19 0] [12 4]] (REQUEST)
r 0.002820300 _17_ MAC  --- 0 AODV 48 [0 ffffffff 1f 800] ------- [31:255 -1:255 29 0] [0x2 2 1 [19 0] [12 4]] (REQUEST)
r 0.002820311 _9_ MAC  --- 0 AODV 48 [0 ffffffff 1f 800] ------- [31:255 -1:255 29 0] [0x2 2 1 [19 0] [12 4]] (REQUEST)
r 0.002820313 _22_ MAC  --- 0 AODV 48 [0 ffffffff 1f 800] ------- [31:255 -1:255 29 0] [0x2 2 1 [19 0] [12 4]] (REQUEST)
r 0.002820341 _18_ MAC  --- 0 AODV 48 [0 ffffffff 1f 800] ------- [31:255 -1:255 29 0] [0x2 2 1 [19 0] [12 4]] (REQUEST)
r 0.002820360 _4_ MAC  --- 0 AODV 48 [0 ffffffff 1f 800] ------- [31:255 -1:255 29 0] [0x2 2 1 [19 0] [12 4]] (REQUEST)
r 0.002820361 _29_ MAC  --- 0 AODV 48 [0 ffffffff 1f 800] ------- [31:255 -1:255 29 0] [0x2 2 1 [19 0] [12 4]] (REQUEST)
r 0.002820379 _8_ MAC  --- 0 AODV 48 [0 ffffffff 1f 800] ------- [31:255 -1:255 29 0] [0x2 2 1 [19 0] [12 4]] (REQUEST)
r 0.002844756 _11_ RTR  --- 0 AODV 48 [0 ffffffff 1f 800] ------- [31:255 -1:255 29 0] [0x2 2 1 [19 0] [12 4]] (REQUEST)
r 0.002844803 _36_ RTR  --- 0 AODV 48 [0 ffffffff 1f 800] ------- [31:255 -1:255 29 0] [0x2 2 1 [19 0] [12 4]] (REQUEST)
r 0.002844833 _3_ RTR  --- 0 AODV 48 [0 ffffffff 1f 800] ------- [31:255 -1:255 29 0] [0x2 2 1 [19 0] [12 4]] (REQUEST)
r 0.002844873 _5_ RTR  --- 0 AODV 48 [0 ffffffff 1f 800] ------- [31:255 -1:255 29 0] [0x2 2 1 [19 0] [12 4]] (REQUEST)
r 0.002844876 _1_ RTR  --- 0 AODV 48 [0 ffffffff 1f 800] ------- [31:255 -1:255 29 0] [0x2 2 1 [19 0] [12 4]] (REQUEST)
r 0.002844923 _21_ RTR  --- 0 AODV 48 [0 ffffffff 1f 800] ------- [31:255 -1:255 29 0] [0x2 2 1 [19 0] [12 4]] (REQUEST)
r 0.002844951 _25_ RTR  --- 0 AODV 48 [0 ffffffff 1f 800] ------- [31:255 -1:255 29 0] [0x2 2 1 [19 0] [12 4]] (REQUEST)
r 0.002844984 _20_ RTR  --- 0 AODV 48 [0 ffffffff 1f 800] ------- [31:255 -1:255 29 0] [0x2 2 1 [19 0] [12 4]] (REQUEST)
r 0.002845047 _6_ RTR  --- 0 AODV 48 [0 ffffffff 1f 800] ------- [31:255 -1:255 29 0] [0x2 2 1 [19 0] [12 4]] (REQUEST)
r 0.002845070 _15_ RTR  --- 0 AODV 48 [0 ffffffff 1f 800] ------- [31:255 -1:255 29 0] [0x2 2 1 [19 0] [12 4]] (REQUEST)
r 0.002845077 _39_ RTR  --- 0 AODV 48 [0 ffffffff 1f 800] ------- [31:255 -1:255 29 0] [0x2 2 1 [19 0] [12 4]] (REQUEST)
r 0.002845084 _24_ RTR  --- 0 AODV 48 [0 ffffffff 1f 800] ------- [31:255 -1:255 29 0] [0x2 2 1 [19 0] [12 4]] (REQUEST)
r 0.002845099 _14_ RTR  --- 0 AODV 48 [0 ffffffff 1f 800] ------- [31:255 -1:255 29 0] [0x2 2 1 [19 0] [12 4]] (REQUEST)
r 0.002845100 _27_ RTR  --- 0 AODV 48 [0 ffffffff 1f 800] ------- [31:255 -1:255 29 0] [0x2 2 1 [19 0] [12 4]] (REQUEST)
r 0.002845108 _28_ RTR  --- 0 AODV 48 [0 ffffffff 1f 800] ------- [31:255 -1:255 29 0] [0x2 2 1 [19 0] [12 4]] (REQUEST)
r 0.002845135 _13_ RTR  --- 0 AODV 48 [0 ffffffff 1f 800] ------- [31:255 -1:255 29 0] [0x2 2 1 [19 0] [12 4]] (REQUEST)
r 0.002845147 _12_ RTR  --- 0 AODV 48 [0 ffffffff 1f 800] ------- [31:255 -1:255 29 0] [0x2 2 1 [19 0] [12 4]] (REQUEST)
r 0.002845199 _2_ RTR  --- 0 AODV 48 [0 ffffffff 1f 800] ------- [31:255 -1:255 29 0] [0x2 2 1 [19 0] [12 4]] (REQUEST)
r 0.002845207 _26_ RTR  --- 0 AODV 48 [0 ffffffff 1f 800] ------- [31:255 -1:255 29 0] [0x2 2 1 [19 0] [12 4]] (REQUEST)
r 0.002845237 _10_ RTR  --- 0 AODV 48 [0 ffffffff 1f 800] ------- [31:255 -1:255 29 0] [0x2 2 1 [19 0] [12 4]] (REQUEST)
r 0.002845237 _32_ RTR  --- 0 AODV 48 [0 ffffffff 1f 800] ------- [31:255 -1:255 29 0] [0x2 2 1 [19 0] [12 4]] (REQUEST)
r 0.002845264 _0_ RTR  --- 0 AODV 48 [0 ffffffff 1f 800] ------- [31:255 -1:255 29 0] [0x2 2 1 [19 0] [12 4]] (REQUEST)
r 0.002845300 _17_ RTR  --- 0 AODV 48 [0 ffffffff 1f 800] ------- [31:255 -1:255 29 0] [0x2 2 1 [19 0] [12 4]] (REQUEST)
r 0.002845311 _9_ RTR  --- 0 AODV 48 [0 ffffffff 1f 800] ------- [31:255 -1:255 29 0] [0x2 2 1 [19 0] [12 4]] (REQUEST)
r 0.002845313 _22_ RTR  --- 0 AODV 48 [0 ffffffff 1f 800] ------- [31:255 -1:255 29 0] [0x2 2 1 [19 0] [12 4]] (REQUEST)
r 0.002845341 _18_ RTR  --- 0 AODV 48 [0 ffffffff 1f 800] ------- [31:255 -1:255 29 0] [0x2 2 1 [19 0] [12 4]] (REQUEST)
r 0.002845360 _4_ RTR  --- 0 AODV 48 [0 ffffffff 1f 800] ------- [31:255 -1:255 29 0] [0x2 2 1 [19 0] [12 4]] (REQUEST)
r 0.002845361 _29_ RTR  --- 0 AODV 48 [0 ffffffff 1f 800] ------- [31:255 -1:255 29 0] [0x2 2 1 [19 0] [12 4]] (REQUEST)
r 0.002845379 _8_ RTR  --- 0 AODV 48 [0 ffffffff 1f 800] ------- [31:255 -1:255 29 0] [0x2 2 1 [19 0] [12 4]] (REQUEST)
s 0.003069756 _11_ MAC  --- 0 AODV 106 [0 ffffffff b 800] ------- [11:255 -1:255 29 0] [0x2 2 1 [19 0] [12 4]] (REQUEST)
s 0.003334390 _0_ RTR  --- 0 AODV 48 [0 ffffffff c 800] ------- [0:255 -1:255 29 0] [0x2 2 1 [19 0] [12 4]] (REQUEST)
r 0.003917966 _31_ MAC  --- 0 AODV 48 [0 ffffffff b 800] ------- [11:255 -1:255 29 0] [0x2 2 1 [19 0] [12 4]] (REQUEST)
r 0.003917983 _25_ MAC  --- 0 AODV 48 [0 ffffffff b 800] ------- [11:255 -1:255 29 0] [0x2 2 1 [19 0] [12 4]] (REQUEST)
r 0.003918056 _21_ MAC  --- 0 AODV 48 [0 ffffffff b 800] ------- [11:255 -1:255 29 0] [0x2 2 1 [19 0] [12 4]] (REQUEST)
r 0.003918100 _5_ MAC  --- 0 AODV 48 [0 ffffffff b 800] ------- [11:255 -1:255 29 0] [0x2 2 1 [19 0] [12 4]] (REQUEST)
r 0.003918101 _14_ MAC  --- 0 AODV 48 [0 ffffffff b 800] ------- [11:255 -1:255 29 0] [0x2 2 1 [19 0] [12 4]] (REQUEST)
r 0.003918152 _1_ MAC  --- 0 AODV 48 [0 ffffffff b 800] ------- [11:255 -1:255 29 0] [0x2 2 1 [19 0] [12 4]] (REQUEST)
r 0.003918165 _15_ MAC  --- 0 AODV 48 [0 ffffffff b 800] ------- [11:255 -1:255 29 0] [0x2 2 1 [19 0] [12 4]] (REQUEST)
r 0.003918187 _36_ MAC  --- 0 AODV 48 [0 ffffffff b 800] ------- [11:255 -1:255 29 0] [0x2 2 1 [19 0] [12 4]] (REQUEST)
r 0.003918198 _13_ MAC  --- 0 AODV 48 [0 ffffffff b 800] ------- [11:255 -1:255 29 0] [0x2 2 1 [19 0] [12 4]] (REQUEST)
r 0.003918243 _3_ MAC  --- 0 AODV 48 [0 ffffffff b 800] ------- [11:255 -1:255 29 0] [0x2 2 1 [19 0] [12 4]] (REQUEST)
r 0.003918250 _26_ MAC  --- 0 AODV 48 [0 ffffffff b 800] ------- [11:255 -1:255 29 0] [0x2 2 1 [19 0] [12 4]] (REQUEST)
r 0.003918304 _17_ MAC  --- 0 AODV 48 [0 ffffffff b 800] ------- [11:255 -1:255 29 0] [0x2 2 1 [19 0] [12 4]] (REQUEST)
r 0.003918332 _12_ MAC  --- 0 AODV 48 [0 ffffffff b 800] ------- [11:255 -1:255 29 0] [0x2 2 1 [19 0] [12 4]] (REQUEST)
r 0.003918356 _20_ MAC  --- 0 AODV 48 [0 ffffffff b 800] ------- [11:255 -1:255 29 0] [0x2 2 1 [19 0] [12 4]] (REQUEST)
r 0.003918370 _6_ MAC  --- 0 AODV 48 [0 ffffffff b 800] ------- [11:255 -1:255 29 0] [0x2 2 1 [19 0] [12 4]] (REQUEST)
r 0.003918373 _39_ MAC  --- 0 AODV 48 [0 ffffffff b 800] ------- [11:255 -1:255 29 0] [0x2 2 1 [19 0] [12 4]] (REQUEST)
r 0.003918423 _16_ MAC  --- 0 AODV 48 [0 ffffffff b 800] ------- [11:255 -1:255 29 0] [0x2 2 1 [19 0] [12 4]] (REQUEST)
r 0.003918443 _37_ MAC  --- 0 AODV 48 [0 ffffffff b 800] ------- [11:255 -1:255 29 0] [0x2 2 1 [19 0] [12 4]] (REQUEST)
r 0.003918446 _10_ MAC  --- 0 AODV 48 [0 ffffffff b 800] ------- [11:255 -1:255 29 0] [0x2 2 1 [19 0] [12 4]] (REQUEST)
r 0.003918454 _35_ MAC  --- 0 AODV 48 [0 ffffffff b 800] ------- [11:255 -1:255 29 0] [0x2 2 1 [19 0] [12 4]] (REQUEST)
r 0.003918474 _24_ MAC  --- 0 AODV 48 [0 ffffffff b 800] ------- [11:255 -1:255 29 0] [0x2 2 1 [19 0] [12 4]] (REQUEST)
r 0.003918480 _18_ MAC  --- 0 AODV 48 [0 ffffffff b 800] ------- [11:255 -1:255 29 0] [0x2 2 1 [19 0] [12 4]] (REQUEST)
r 0.003918501 _27_ MAC  --- 0 AODV 48 [0 ffffffff b 800] ------- [11:255 -1:255 29 0] [0x2 2 1 [19 0] [12 4]] (REQUEST)
r 0.003918509 _32_ MAC  --- 0 AODV 48 [0 ffffffff b 800] ------- [11:255 -1:255 29 0] [0x2 2 1 [19 0] [12 4]] (REQUEST)
r 0.003918522 _28_ MAC  --- 0 AODV 48 [0 ffffffff b 800] ------- [11:255 -1:255 29 0] [0x2 2 1 [19 0] [12 4]] (REQUEST)
r 0.003918552 _0_ MAC  --- 0 AODV 48 [0 ffffffff b 800] ------- [11:255 -1:255 29 0] [0x2 2 1 [19 0] [12 4]] (REQUEST)
r 0.003918581 _4_ MAC  --- 0 AODV 48 [0 ffffffff b 800] ------- [11:255 -1:255 29 0] [0x2 2 1 [19 0] [12 4]] (REQUEST)
s 0.003937364 _8_ RTR  --- 0 AODV 48 [0 ffffffff 1f 800] ------- [8:255 -1:255 28 0] [0x2 3 1 [19 0] [12 4]] (REQUEST)
r 0.003942966 _31_ RTR  --- 0 AODV 48 [0 ffffffff b 800] ------- [11:255 -1:255 29 0] [0x2 2 1 [19 0] [12 4]] (REQUEST)
r 0.003942983 _25_ RTR  --- 0 AODV 48 [0 ffffffff b 800] ------- [11:255 -1:255 29 0] [0x2 2 1 [19 0] [12 4]] (REQUEST)
r 0.003943056 _21_ RTR  --- 0 AODV 48 [0 ffffffff b 800] ------- [11:255 -1:255 29 0] [0x2 2 1 [19 0] [12 4]] (REQUEST)
r 0.003943100 _5_ RTR  --- 0 AODV 48 [0 ffffffff b 800] ------- [11:255 -1:255 29 0] [0x2 2 1 [19 0] [12 4]] (REQUEST)
r 0.003943101 _14_ RTR  --- 0 AODV 48 [0 ffffffff b 800] ------- [11:255 -1:255 29 0] [0x2 2 1 [19 0] [12 4]] (REQUEST)
r 0.003943152 _1_ RTR  --- 0 AODV 48 [0 ffffffff b 800] ------- [11:255 -1:255 29 0] [0x2 2 1 [19 0] [12 4]] (REQUEST)
r 0.003943165 _15_ RTR  --- 0 AODV 48 [0 ffffffff b 800] ------- [11:255 -1:255 29 0] [0x2 2 1 [19 0] [12 4]] (REQUEST)
r 0.003943187 _36_ RTR  --- 0 AODV 48 [0 ffffffff b 800] ------- [11:255 -1:255 29 0] [0x2 2 1 [19 0] [12 4]] (REQUEST)
r 0.003943198 _13_ RTR  --- 0 AODV 48 [0 ffffffff b 800] ------- [11:255 -1:255 29 0] [0x2 2 1 [19 0] [12 4]] (REQUEST)
r 0.003943243 _3_ RTR  --- 0 AODV 48 [0 ffffffff b 800] ------- [11:255 -1:255 29 0] [0x2 2 1 [19 0] [12 4]] (REQUEST)
r 0.003943250 _26_ RTR  --- 0 AODV 48 [0 ffffffff b 800] ------- [11:255 -1:255 29 0] [0x2 2 1 [19 0] [12 4]] (REQUEST)
r 0.003943304 _17_ RTR  --- 0 AODV 48 [0 ffffffff b 800] ------- [11:255 -1:255 29 0] [0x2 2 1 [19 0] [12 4]] (REQUEST)
r 0.003943332 _12_ RTR  --- 0 AODV 48 [0 ffffffff b 800] ------- [11:255 -1:255 29 0] [0x2 2 1 [19 0] [12 4]] (REQUEST)
r 0.003943356 _20_ RTR  --- 0 AODV 48 [0 ffffffff b 800] ------- [11:255 -1:255 29 0] [0x2 2 1 [19 0] [12 4]] (REQUEST)
r 0.003943370 _6_ RTR  --- 0 AODV 48 [0 ffffffff b 800] ------- [11:255 -1:255 29 0] [0x2 2 1 [19 0] [12 4]] (REQUEST)
r 0.003943373 _39_ RTR  --- 0 AODV 48 [0 ffffffff b 800] ------- [11:255 -1:255 29 0] [0x2 2 1 [19 0] [12 4]] (REQUEST)
r 0.003943423 _16_ RTR  --- 0 AODV 48 [0 ffffffff b 800] ------- [11:255 -1:255 29 0] [0x2 2 1 [19 0] [12 4]] (REQUEST)
r 0.003943443 _37_ RTR  --- 0 AODV 48 [0 ffffffff b 800] ------- [11:255 -1:255 29 0] [0x2 2 1 [19 0] [12 4]] (REQUEST)
r 0.003943446 _10_ RTR  --- 0 AODV 48 [0 ffffffff b 800] ------- [11:255 -1:255 29 0] [0x2 2 1 [19 0] [12 4]] (REQUEST)
r 0.003943454 _35_ RTR  --- 0 AODV 48 [0 ffffffff b 800] ------- [11:255 -1:255 29 0] [0x2 2 1 [19 0] [12 4]] (REQUEST)
r 0.003943474 _24_ RTR  --- 0 AODV 48 [0 ffffffff b 800] ------- [11:255 -1:255 29 0] [0x2 2 1 [19 0] [12 4]] (REQUEST)
r 0.003943480 _18_ RTR  --- 0 AODV 48 [0 ffffffff b 800] ------- [11:255 -1:255 29 0] [0x2 2 1 [19 0] [12 4]] (REQUEST)
r 0.003943501 _27_ RTR  --- 0 AODV 48 [0 ffffffff b 800] ------- [11:255 -1:255 29 0] [0x2 2 1 [19 0] [12 4]] (REQUEST)
r 0.003943509 _32_ RTR  --- 0 AODV 48 [0 ffffffff b 800] ------- [11:255 -1:255 29 0] [0x2 2 1 [19 0] [12 4]] (REQUEST)
r 0.003943522 _28_ RTR  --- 0 AODV 48 [0 ffffffff b 800] ------- [11:255 -1:255 29 0] [0x2 2 1 [19 0] [12 4]] (REQUEST)
r 0.003943552 _0_ RTR  --- 0 AODV 48 [0 ffffffff b 800] ------- [11:255 -1:255 29 0] [0x2 2 1 [19 0] [12 4]] (REQUEST)
r 0.003943581 _4_ RTR  --- 0 AODV 48 [0 ffffffff b 800] ------- [11:255 -1:255 29 0] [0x2 2 1 [19 0] [12 4]] (REQUEST)
s 0.004079321 _36_ RTR  --- 0 AODV 48 [0 ffffffff c 800] ------- [36:255 -1:255 29 0] [0x2 2 1 [19 0] [12 4]] (REQUEST)
s 0.004088501 _27_ MAC  --- 0 AODV 106 [0 ffffffff 1b 800] ------- [27:255 -1:255 29 0] [0x2 2 1 [19 0] [12 4]] (REQUEST)
s 0.004088581 _4_ MAC  --- 0 AODV 106 [0 ffffffff 4 800] ------- [4:255 -1:255 29 0] [0x2 2 1 [19 0] [12 4]] (REQUEST)
D 0.004088935 _39_ MAC  COL 0 AODV 106 [0 ffffffff 4 800] ------- [4:255 -1:255 29 0] [0x2 2 1 [19 0] [12 4]] (REQUEST)
D 0.004089068 _1_ MAC  COL 0 AODV 106 [0 ffffffff 1b 800] ------- [27:255 -1:255 29 0] [0x2 2 1 [19 0] [12 4]] (REQUEST)
D 0.004089216 _21_ MAC  COL 0 AODV 106 [0 ffffffff 4 800] ------- [4:255 -1:255 29 0] [0x2 2 1 [19 0] [12 4]] (REQUEST)
D 0.004089367 _25_ MAC  COL 0 AODV 106 [0 ffffffff 4 800] ------- [4:255 -1:255 29 0] [0x2 2 1 [19 0] [12 4]] (REQUEST)
D 0.004089395 _31_ MAC  COL 0 AODV 106 [0 ffffffff 1b 800] ------- [27:255 -1:255 29 0] [0x2 2 1 [19 0] [12 4]] (REQUEST)
D 0.004089406 _11_ MAC  COL 0 AODV 106 [0 ffffffff 1b 800] ------- [27:255 -1:255 29 0] [0x2 2 1 [19 0] [12 4]] (REQUEST)
D 0.004089457 _13_ MAC  COL 0 AODV 106 [0 ffffffff 4 800] ------- [4:255 -1:255 29 0] [0x2 2 1 [19 0] [12 4]] (REQUEST)
D 0.004089710 _5_ MAC  COL 0 AODV 106 [0 ffffffff 1b 800] ------- [27:255 -1:255 29 0] [0x2 2 1 [19 0] [12 4]] (REQUEST)
D 0.004089878 _6_ MAC  COL 0 AODV 106 [0 ffffffff 1b 800] ------- [27:255 -1:255 29 0] [0x2 2 1 [19 0] [12 4]] (REQUEST)
s 0.004117929 _39_ RTR  --- 0 AODV 48 [0 ffffffff c 800] ------- [39:255 -1:255 29 0] [0x2 2 1 [19 0] [12 4]] (REQUEST)
r 0.004936693 _2_ MAC  --- 0 AODV 48 [0 ffffffff 1b 800] ------- [27:255 -1:255 29 0] [0x2 2 1 [19 0] [12 4]] (REQUEST)
r 0.004936697 _20_ MAC  --- 0 AODV 48 [0 ffffffff 1b 800] ------- [27:255 -1:255 29 0] [0x2 2 1 [19 0] [12 4]] (REQUEST)
r 0.004936817 _36_ MAC  --- 0 AODV 48 [0 ffffffff 1b 800] ------- [27:255 -1:255 29 0] [0x2 2 1 [19 0] [12 4]] (REQUEST)
r 0.004936844 _12_ MAC  --- 0 AODV 48 [0 ffffffff 4 800] ------- [4:255 -1:255 29 0] [0x2 2 1 [19 0] [12 4]] (REQUEST)
r 0.004936847 _0_ MAC  --- 0 AODV 48 [0 ffffffff 4 800] ------- [4:255 -1:255 29 0] [0x2 2 1 [19 0] [12 4]] (REQUEST)
r 0.004936922 _28_ MAC  --- 0 AODV 48 [0 ffffffff 1b 800] ------- [27:255 -1:255 29 0] [0x2 2 1 [19 0] [12 4]] (REQUEST)
D 0.004936935 _39_ MAC  COL 0 AODV 106 [0 ffffffff 1b 800] ------- [27:255 -1:255 29 0] [0x2 2 1 [19 0] [12 4]] (REQUEST)
r 0.004936936 _3_ MAC  --- 0 AODV 48 [0 ffffffff 1b 800] ------- [27:255 -1:255 29 0] [0x2 2 1 [19 0] [12 4]] (REQUEST)
r 0.004936982 _22_ MAC  --- 0 AODV 48 [0 ffffffff 1b 800] ------- [27:255 -1:255 29 0] [0x2 2 1 [19 0] [12 4]] (REQUEST)
D 0.004937068 _1_ MAC  COL 0 AODV 106 [0 ffffffff 4 800] ------- [4:255 -1:255 29 0] [0x2 2 1 [19 0] [12 4]] (REQUEST)
r 0.004937085 _24_ MAC  --- 0 AODV 48 [0 ffffffff 1b 800] ------- [27:255 -1:255 29 0] [0x2 2 1 [19 0] [12 4]] (REQUEST)
r 0.004937169 _29_ MAC  --- 0 AODV 48 [0 ffffffff 1b 800] ------- [27:255 -1:255 29 0] [0x2 2 1 [19 0] [12 4]] (REQUEST)
D 0.004937216 _21_ MAC  COL 0 AODV 106 [0 ffffffff 1b 800] ------- [27:255 -1:255 29 0] [0x2 2 1 [19 0] [12 4]] (REQUEST)
r 0.004937218 _7_ MAC  --- 0 AODV 48 [0 ffffffff 1b 800] ------- [27:255 -1:255 29 0] [0x2 2 1 [19 0] [12 4]] (REQUEST)
r 0.004937324 _8_ MAC  --- 0 AODV 48 [0 ffffffff 1b 800] ------- [27:255 -1:255 29 0] [0x2 2 1 [19 0] [12 4]] (REQUEST)
D 0.004937395 _31_ MAC  COL 0 AODV 106 [0 ffffffff 4 800] ------- [4:255 -1:255 29 0] [0x2 2 1 [19 0] [12 4]] (REQUEST)
D 0.004937406 _11_ MAC  COL 0 AODV 106 [0 ffffffff 4 800] ------- [4:255 -1:255 29 0] [0x2 2 1 [19 0] [12 4]] (REQUEST)
r 0.004961693 _2_ RTR  --- 0 AODV 48 [0 ffffffff 1b 800] ------- [27:255 -1:255 29 0] [0x2 2 1 [19 0] [12 4]] (REQUEST)
r 0.004961697 _20_ RTR  --- 0 AODV 48 [0 ffffffff 1b 800] ------- [27:255 -1:255 29 0] [0x2 2 1 [19 0] [12 4]] (REQUEST)
r 0.004961817 _36_ RTR  --- 0 AODV 48 [0 ffffffff 1b 800] ------- [27:255 -1:255 29 0] [0x2 2 1 [19 0] [12 4]] (REQUEST)
r 0.004961844 _12_ RTR  --- 0 AODV 48 [0 ffffffff 4 800] ------- [4:255 -1:255 29 0] [0x2 2 1 [19 0] [12 4]] (REQUEST)
r 0.004961847 _0_ RTR  --- 0 AODV 48 [0 ffffffff 4 800] ------- [4:255 -1:255 29 0] [0x2 2 1 [19 0] [12 4]] (REQUEST)
r 0.004961922 _28_ RTR  --- 0 AODV 48 [0 ffffffff 1b 800] ------- [27:255 -1:255 29 0] [0x2 2 1 [19 0] [12 4]] (REQUEST)
r 0.004961936 _3_ RTR  --- 0 AODV 48 [0 ffffffff 1b 800] ------- [27:255 -1:255 29 0] [0x2 2 1 [19 0] [12 4]] (REQUEST)
r 0.004961982 _22_ RTR  --- 0 AODV 48 [0 ffffffff 1b 800] ------- [27:255 -1:255 29 0] [0x2 2 1 [19 0] [12 4]] (REQUEST)
r 0.004962085 _24_ RTR  --- 0 AODV 48 [0 ffffffff 1b 800] ------- [27:255 -1:255 29 0] [0x2 2 1 [19 0] [12 4]] (REQUEST)
r 0.004962169 _29_ RTR  --- 0 AODV 48 [0 ffffffff 1b 800] ------- [27:255 -1:255 29 0] [0x2 2 1 [19 0] [12 4]] (REQUEST)
r 0.004962218 _7_ RTR  --- 0 AODV 48 [0 ffffffff 1b 800] ------- [27:255 -1:255 29 0] [0x2 2 1 [19 0] [12 4]] (REQUEST)
r 0.004962324 _8_ RTR  --- 0 AODV 48 [0 ffffffff 1b 800] ------- [27:255 -1:255 29 0] [0x2 2 1 [19 0] [12 4]] (REQUEST)
s 0.005016802 _26_ RTR  --- 0 AODV 48 [0 ffffffff 1f 800] ------- [26:255 -1:255 28 0] [0x2 3 1 [19 0] [12 4]] (REQUEST)
s 0.005225381 _3_ RTR  --- 0 AODV 48 [0 ffffffff c 800] ------- [3:255 -1:255 29 0] [0x2 2 1 [19 0] [12 4]] (REQUEST)
s 0.005257493 _10_ RTR  --- 0 AODV 48 [0 ffffffff 1f 800] ------- [10:255 -1:255 28 0] [0x2 3 1 [19 0] [12 4]] (REQUEST)
s 0.005400014 _21_ RTR  --- 0 AODV 48 [0 ffffffff c 800] ------- [21:255 -1:255 29 0] [0x2 2 1 [19 0] [12 4]] (REQUEST)
s 0.005411256 _36_ MAC  --- 0 AODV 106 [0 ffffffff 24 800] ------- [36:255 -1:255 29 0] [0x2 2 1 [19 0] [12 4]] (REQUEST)
s 0.006193253 _7_ RTR  --- 0 AODV 48 [0 ffffffff 1b 800] ------- [7:255 -1:255 28 0] [0x2 3 1 [19 0] [12 4]] (REQUEST)
r 0.006259437 _20_ MAC  --- 0 AODV 48 [0 ffffffff 24 800] ------- [36:255 -1:255 29 0] [0x2 2 1 [19 0] [12 4]] (REQUEST)
r 0.006259484 _1_ MAC  --- 0 AODV 48 [0 ffffffff 24 800] ------- [36:255 -1:255 29 0] [0x2 2 1 [19 0] [12 4]] (REQUEST)
r 0.006259513 _31_ MAC  --- 0 AODV 48 [0 ffffffff 24 800] ------- [36:255 -1:255 29 0] [0x2 2 1 [19 0] [12 4]] (REQUEST)
r 0.006259559 _3_ MAC  --- 0 AODV 48 [0 ffffffff 24 800] ------- [36:255 -1:255 29 0] [0x2 2 1 [19 0] [12 4]] (REQUEST)
r 0.006259572 _27_ MAC  --- 0 AODV 48 [0 ffffffff 24 800] ------- [36:255 -1:255 29 0] [0x2 2 1 [19 0] [12 4]] (REQUEST)
r 0.006259593 _39_ MAC  --- 0 AODV 48 [0 ffffffff 24 800] ------- [36:255 -1:255 29 0] [0x2 2 1 [19 0] [12 4]] (REQUEST)
r 0.006259682 _21_ MAC  --- 0 AODV 48 [0 ffffffff 24 800] ------- [36:255 -1:255 29 0] [0x2 2 1 [19 0] [12 4]] (REQUEST)
r 0.006259687 _11_ MAC  --- 0 AODV 48 [0 ffffffff 24 800] ------- [36:255 -1:255 29 0] [0x2 2 1 [19 0] [12 4]] (REQUEST)
r 0.006259712 _2_ MAC  --- 0 AODV 48 [0 ffffffff 24 800] ------- [36:255 -1:255 29 0] [0x2 2 1 [19 0] [12 4]] (REQUEST)
r 0.006259747 _28_ MAC  --- 0 AODV 48 [0 ffffffff 24 800] ------- [36:255 -1:255 29 0] [0x2 2 1 [19 0] [12 4]] (REQUEST)
r 0.006259770 _0_ MAC  --- 0 AODV 48 [0 ffffffff 24 800] ------- [36:255 -1:255 29 0] [0x2 2 1 [19 0] [12 4]] (REQUEST)
r 0.006259786 _12_ MAC  --- 0 AODV 48 [0 ffffffff 24 800] ------- [36:255 -1:255 29 0] [0x2 2 1 [19 0] [12 4]] (REQUEST)
r 0.006259811 _25_ MAC  --- 0 AODV 48 [0 ffffffff 24 800] ------- [36:255 -1:255 29 0] [0x2 2 1 [19 0] [12 4]] (REQUEST)
r 0.006259815 _24_ MAC  --- 0 AODV 48 [0 ffffffff 24 800] ------- [36:255 -1:255 29 0] [0x2 2 1 [19 0] [12 4]] (REQUEST)
r 0.006259818 _5_ MAC  --- 0 AODV 48 [0 ffffffff 24 800] ------- [36:255 -1:255 29 0] [0x2 2 1 [19 0] [12 4]] (REQUEST)
r 0.006259898 _6_ MAC  --- 0 AODV 48 [0 ffffffff 24 800] ------- [36:255 -1:255 29 0] [0x2 2 1 [19 0] [12 4]] (REQUEST)
r 0.006259911 _22_ MAC  --- 0 AODV 48 [0 ffffffff 24 800] ------- [36:255 -1:255 29 0] [0x2 2 1 [19 0] [12 4]] (REQUEST)
r 0.006259927 _13_ MAC  --- 0 AODV 48 [0 ffffffff 24 800] ------- [36:255 -1:255 29 0] [0x2 2 1 [19 0] [12 4]] (REQUEST)
r 0.006259931 _4_ MAC  --- 0 AODV 48 [0 ffffffff 24 800] ------- [36:255 -1:255 29 0] [0x2 2 1 [19 0] [12 4]] (REQUEST)
r 0.006260025 _14_ MAC  --- 0 AODV 48 [0 ffffffff 24 800] ------- [36:255 -1:255 29 0] [0x2 2 1 [19 0] [12 4]] (REQUEST)
r 0.006260026 _29_ MAC  --- 0 AODV 48 [0 ffffffff 24 800] ------- [36:255 -1:255 29 0] [0x2 2 1 [19 0] [12 4]] (REQUEST)
r 0.006260036 _15_ MAC  --- 0 AODV 48 [0 ffffffff 24 800] ------- [36:255 -1:255 29 0] [0x2 2 1 [19 0] [12 4]] (REQUEST)
r 0.006284437 _20_ RTR  --- 0 AODV 48 [0 ffffffff 24 800] ------- [36:255 -1:255 29 0] [0x2 2 1 [19 0] [12 4]] (REQUEST)
r 0.006284484 _1_ RTR  --- 0 AODV 48 [0 ffffffff 24 800] ------- [36:255 -1:255 29 0] [0x2 2 1 [19 0] [12 4]] (REQUEST)
r 0.006284513 _31_ RTR  --- 0 AODV 48 [0 ffffffff 24 800] ------- [36:255 -1:255 29 0] [0x2 2 1 [19 0] [12 4]] (REQUEST)
r 0.006284559 _3_ RTR  --- 0 AODV 48 [0 ffffffff 24 800] ------- [36:255 -1:255 29 0] [0x2 2 1 [19 0] [12 4]] (REQUEST)
r 0.006284572 _27_ RTR  --- 0 AODV 48 [0 ffffffff 24 800] ------- [36:255 -1:255 29 0] [0x2 2 1 [19 0] [12 4]] (REQUEST)
r 0.006284593 _39_ RTR  --- 0 AODV 48 [0 ffffffff 24 800] ------- [36:255 -1:255 29 0] [0x2 2 1 [19 0] [12 4]] (REQUEST)
r 0.006284682 _21_ RTR  --- 0 AODV 48 [0 ffffffff 24 800] ------- [36:255 -1:255 29 0] [0x2 2 1 [19 0] [12 4]] (REQUEST)
r 0.006284687 _11_ RTR  --- 0 AODV 48 [0 ffffffff 24 800] ------- [36:255 -1:255 29 0] [0x2 2 1 [19 0] [12 4]] (REQUEST)
r 0.006284712 _2_ RTR  --- 0 AODV 48 [0 ffffffff 24 800] ------- [36:255 -1:255 29 0] [0x2 2 1 [19 0] [12 4]] (REQUEST)
r 0.006284747 _28_ RTR  --- 0 AODV 48 [0 ffffffff 24 800] ------- [36:255 -1:255 29 0] [0x2 2 1 [19 0] [12 4]] (REQUEST)
r 0.006284770 _0_ RTR  --- 0 AODV 48 [0 ffffffff 24 800] ------- [36:255 -1:255 29 0] [0x2 2 1 [19 0] [12 4]] (REQUEST)
r 0.006284786 _12_ RTR  --- 0 AODV 48 [0 ffffffff 24 800] ------- [36:255 -1:255 29 0] [0x2 2 1 [19 0] [12 4]] (REQUEST)
r 0.006284811 _25_ RTR  --- 0 AODV 48 [0 ffffffff 24 800] ------- [36:255 -1:255 29 0] [0x2 2 1 [19 0] [12 4]] (REQUEST)
r 0.006284815 _24_ RTR  --- 0 AODV 48 [0 ffffffff 24 800] ------- [36:255 -1:255 29 0] [0x2 2 1 [19 0] [12 4]] (REQUEST)
r 0.006284818 _5_ RTR  --- 0 AODV 48 [0 ffffffff 24 800] ------- [36:255 -1:255 29 0] [0x2 2 1 [19 0] [12 4]] (REQUEST)
r 0.006284898 _6_ RTR  --- 0 AODV 48 [0 ffffffff 24 800] ------- [36:255 -1:255 29 0] [0x2 2 1 [19 0] [12 4]] (REQUEST)
r 0.006284911 _22_ RTR  --- 0 AODV 48 [0 ffffffff 24 800] ------- [36:255 -1:255 29 0] [0x2 2 1 [19 0] [12 4]] (REQUEST)
r 0.006284927 _13_ RTR  --- 0 AODV 48 [0 ffffffff 24 800] ------- [36:255 -1:255 29 0] [0x2 2 1 [19 0] [12 4]] (REQUEST)
r 0.006284931 _4_ RTR  --- 0 AODV 48 [0 ffffffff 24 800] ------- [36:255 -1:255 29 0] [0x2 2 1 [19 0] [12 4]] (REQUEST)
r 0.006285025 _14_ RTR  --- 0 AODV 48 [0 ffffffff 24 800] ------- [36:255 -1:255 29 0] [0x2 2 1 [19 0] [12 4]] (REQUEST)
r 0.006285026 _29_ RTR  --- 0 AODV 48 [0 ffffffff 24 800] ------- [36:255 -1:255 29 0] [0x2 2 1 [19 0] [12 4]] (REQUEST)
r 0.006285036 _15_ RTR  --- 0 AODV 48 [0 ffffffff 24 800] ------- [36:255 -1:255 29 0] [0x2 2 1 [19 0] [12 4]] (REQUEST)
s 0.006309682 _21_ MAC  --- 0 AODV 106 [0 ffffffff 15 800] ------- [21:255 -1:255 29 0] [0x2 2 1 [19 0] [12 4]] (REQUEST)
s 0.006900552 _29_ RTR  --- 0 AODV 48 [0 ffffffff 1f 800] ------- [29:255 -1:255 28 0] [0x2 3 1 [19 0] [12 4]] (REQUEST)
s 0.006931730 _5_ RTR  --- 0 AODV 48 [0 ffffffff 1f 800] ------- [5:255 -1:255 28 0] [0x2 3 1 [19 0] [12 4]] (REQUEST)
r 0.007157885 _25_ MAC  --- 0 AODV 48 [0 ffffffff 15 800] ------- [21:255 -1:255 29 0] [0x2 2 1 [19 0] [12 4]] (REQUEST)