s 1.000000000 _8_ AGT  --- 0 cbr 1000 [0 0 0 0] ------- [8:0 9:0 32 0] [0] 0 0
r 1.000000000 _8_ RTR  --- 0 cbr 1000 [0 0 0 0] ------- [8:0 9:0 32 0] [0] 0 0
s 1.000000000 _8_ RTR  --- 0 AODV 48 [0 0 0 0] ------- [8:255 -1:255 30 0] [0x2 1 1 [9 0] [8 4]] (REQUEST)
s 1.000535000 _8_ MAC  --- 0 AODV 106 [0 ffffffff 8 800] ------- [8:255 -1:255 30 0] [0x2 1 1 [9 0] [8 4]] (REQUEST)
r 1.001383469 _2_ MAC  --- 0 AODV 48 [0 ffffffff 8 800] ------- [8:255 -1:255 30 0] [0x2 1 1 [9 0] [8 4]] (REQUEST)
r 1.001383507 _1_ MAC  --- 0 AODV 48 [0 ffffffff 8 800] ------- [8:255 -1:255 30 0] [0x2 1 1 [9 0] [8 4]] (REQUEST)
r 1.001383691 _3_ MAC  --- 0 AODV 48 [0 ffffffff 8 800] ------- [8:255 -1:255 30 0] [0x2 1 1 [9 0] [8 4]] (REQUEST)
r 1.001408469 _2_ RTR  --- 0 AODV 48 [0 ffffffff 8 800] ------- [8:255 -1:255 30 0] [0x2 1 1 [9 0] [8 4]] (REQUEST)
s 1.001408469 _2_ RTR  --- 0 AODV 44 [0 0 0 0] ------- [2:255 8:255 30 8] [0x4 1 [9 4] 10.000000] (REPLY)
r 1.001408507 _1_ RTR  --- 0 AODV 48 [0 ffffffff 8 800] ------- [8:255 -1:255 30 0] [0x2 1 1 [9 0] [8 4]] (REQUEST)
r 1.001408691 _3_ RTR  --- 0 AODV 48 [0 ffffffff 8 800] ------- [8:255 -1:255 30 0] [0x2 1 1 [9 0] [8 4]] (REQUEST)
s 1.001550554 _1_ RTR  --- 0 AODV 48 [0 ffffffff 8 800] ------- [1:255 -1:255 29 0] [0x2 2 1 [9 0] [8 4]] (REQUEST)
s 1.001625554 _1_ MAC  --- 0 AODV 106 [0 ffffffff 1 800] ------- [1:255 -1:255 29 0] [0x2 2 1 [9 0] [8 4]] (REQUEST)
s 1.002289917 _3_ RTR  --- 0 AODV 48 [0 ffffffff 8 800] ------- [3:255 -1:255 29 0] [0x2 2 1 [9 0] [8 4]] (REQUEST)
r 1.002473920 _3_ MAC  --- 0 AODV 48 [0 ffffffff 1 800] ------- [1:255 -1:255 29 0] [0x2 2 1 [9 0] [8 4]] (REQUEST)
r 1.002473995 _4_ MAC  --- 0 AODV 48 [0 ffffffff 1 800] ------- [1:255 -1:255 29 0] [0x2 2 1 [9 0] [8 4]] (REQUEST)
r 1.002474061 _8_ MAC  --- 0 AODV 48 [0 ffffffff 1 800] ------- [1:255 -1:255 29 0] [0x2 2 1 [9 0] [8 4]] (REQUEST)
r 1.002474087 _2_ MAC  --- 0 AODV 48 [0 ffffffff 1 800] ------- [1:255 -1:255 29 0] [0x2 2 1 [9 0] [8 4]] (REQUEST)
r 1.002474160 _5_ MAC  --- 0 AODV 48 [0 ffffffff 1 800] ------- [1:255 -1:255 29 0] [0x2 2 1 [9 0] [8 4]] (REQUEST)
r 1.002474220 _6_ MAC  --- 0 AODV 48 [0 ffffffff 1 800] ------- [1:255 -1:255 29 0] [0x2 2 1 [9 0] [8 4]] (REQUEST)
r 1.002498920 _3_ RTR  --- 0 AODV 48 [0 ffffffff 1 800] ------- [1:255 -1:255 29 0] [0x2 2 1 [9 0] [8 4]] (REQUEST)
r 1.002498995 _4_ RTR  --- 0 AODV 48 [0 ffffffff 1 800] ------- [1:255 -1:255 29 0] [0x2 2 1 [9 0] [8 4]] (REQUEST)
r 1.002499061 _8_ RTR  --- 0 AODV 48 [0 ffffffff 1 800] ------- [1:255 -1:255 29 0] [0x2 2 1 [9 0] [8 4]] (REQUEST)
r 1.002499087 _2_ RTR  --- 0 AODV 48 [0 ffffffff 1 800] ------- [1:255 -1:255 29 0] [0x2 2 1 [9 0] [8 4]] (REQUEST)
r 1.002499160 _5_ RTR  --- 0 AODV 48 [0 ffffffff 1 800] ------- [1:255 -1:255 29 0] [0x2 2 1 [9 0] [8 4]] (REQUEST)
r 1.002499220 _6_ RTR  --- 0 AODV 48 [0 ffffffff 1 800] ------- [1:255 -1:255 29 0] [0x2 2 1 [9 0] [8 4]] (REQUEST)
s 1.002683920 _3_ MAC  --- 0 AODV 106 [0 ffffffff 3 800] ------- [3:255 -1:255 29 0] [0x2 2 1 [9 0] [8 4]] (REQUEST)
s 1.002684087 _2_ MAC  --- 0 ARP 86 [0 ffffffff 2 806] ------- [REQUEST 2/2 0/8]
D 1.002684600 _0_ MAC  COL 0 ARP 86 [0 ffffffff 2 806] ------- [REQUEST 2/2 0/8]
D 1.002684611 _8_ MAC  COL 0 ARP 86 [0 ffffffff 2 806] ------- [REQUEST 2/2 0/8]
D 1.002684621 _1_ MAC  COL 0 ARP 86 [0 ffffffff 2 806] ------- [REQUEST 2/2 0/8]
D 1.002684715 _7_ MAC  COL 0 ARP 86 [0 ffffffff 2 806] ------- [REQUEST 2/2 0/8]
D 1.003532287 _1_ MAC  COL 0 AODV 106 [0 ffffffff 3 800] ------- [3:255 -1:255 29 0] [0x2 2 1 [9 0] [8 4]] (REQUEST)
r 1.003532314 _6_ MAC  --- 0 AODV 48 [0 ffffffff 3 800] ------- [3:255 -1:255 29 0] [0x2 2 1 [9 0] [8 4]] (REQUEST)
D 1.003532422 _7_ MAC  COL 0 AODV 106 [0 ffffffff 3 800] ------- [3:255 -1:255 29 0] [0x2 2 1 [9 0] [8 4]] (REQUEST)
D 1.003532461 _5_ MAC  COL 0 AODV 106 [0 ffffffff 3 800] ------- [3:255 -1:255 29 0] [0x2 2 1 [9 0] [8 4]] (REQUEST)
D 1.003532554 _4_ MAC  COL 0 AODV 106 [0 ffffffff 3 800] ------- [3:255 -1:255 29 0] [0x2 2 1 [9 0] [8 4]] (REQUEST)
D 1.003532600 _0_ MAC  COL 0 AODV 106 [0 ffffffff 3 800] ------- [3:255 -1:255 29 0] [0x2 2 1 [9 0] [8 4]] (REQUEST)
D 1.003532611 _8_ MAC  COL 0 AODV 106 [0 ffffffff 3 800] ------- [3:255 -1:255 29 0] [0x2 2 1 [9 0] [8 4]] (REQUEST)
D 1.003532637 _9_ MAC  COL 0 AODV 106 [0 ffffffff 3 800] ------- [3:255 -1:255 29 0] [0x2 2 1 [9 0] [8 4]] (REQUEST)
r 1.003557314 _6_ RTR  --- 0 AODV 48 [0 ffffffff 3 800] ------- [3:255 -1:255 29 0] [0x2 2 1 [9 0] [8 4]] (REQUEST)
s 1.004845013 _4_ RTR  --- 0 AODV 48 [0 ffffffff 1 800] ------- [4:255 -1:255 28 0] [0x2 3 1 [9 0] [8 4]] (REQUEST)
s 1.005460013 _4_ MAC  --- 0 AODV 106 [0 ffffffff 4 800] ------- [4:255 -1:255 28 0] [0x2 3 1 [9 0] [8 4]] (REQUEST)
s 1.005590011 _6_ RTR  --- 0 AODV 48 [0 ffffffff 1 800] ------- [6:255 -1:255 28 0] [0x2 3 1 [9 0] [8 4]] (REQUEST)
r 1.006308411 _5_ MAC  --- 0 AODV 48 [0 ffffffff 4 800] ------- [4:255 -1:255 28 0] [0x2 3 1 [9 0] [8 4]] (REQUEST)
r 1.006308455 _1_ MAC  --- 0 AODV 48 [0 ffffffff 4 800] ------- [4:255 -1:255 28 0] [0x2 3 1 [9 0] [8 4]] (REQUEST)
r 1.006308647 _3_ MAC  --- 0 AODV 48 [0 ffffffff 4 800] ------- [4:255 -1:255 28 0] [0x2 3 1 [9 0] [8 4]] (REQUEST)
r 1.006308696 _6_ MAC  --- 0 AODV 48 [0 ffffffff 4 800] ------- [4:255 -1:255 28 0] [0x2 3 1 [9 0] [8 4]] (REQUEST)
r 1.006333411 _5_ RTR  --- 0 AODV 48 [0 ffffffff 4 800] ------- [4:255 -1:255 28 0] [0x2 3 1 [9 0] [8 4]] (REQUEST)
r 1.006333455 _1_ RTR  --- 0 AODV 48 [0 ffffffff 4 800] ------- [4:255 -1:255 28 0] [0x2 3 1 [9 0] [8 4]] (REQUEST)
r 1.006333647 _3_ RTR  --- 0 AODV 48 [0 ffffffff 4 800] ------- [4:255 -1:255 28 0] [0x2 3 1 [9 0] [8 4]] (REQUEST)
r 1.006333696 _6_ RTR  --- 0 AODV 48 [0 ffffffff 4 800] ------- [4:255 -1:255 28 0] [0x2 3 1 [9 0] [8 4]] (REQUEST)
s 1.006518696 _6_ MAC  --- 0 AODV 106 [0 ffffffff 6 800] ------- [6:255 -1:255 28 0] [0x2 3 1 [9 0] [8 4]] (REQUEST)
r 1.007367052 _5_ MAC  --- 0 AODV 48 [0 ffffffff 6 800] ------- [6:255 -1:255 28 0] [0x2 3 1 [9 0] [8 4]] (REQUEST)
r 1.007367079 _9_ MAC  --- 0 AODV 48 [0 ffffffff 6 800] ------- [6:255 -1:255 28 0] [0x2 3 1 [9 0] [8 4]] (REQUEST)
r 1.007367090 _3_ MAC  --- 0 AODV 48 [0 ffffffff 6 800] ------- [6:255 -1:255 28 0] [0x2 3 1 [9 0] [8 4]] (REQUEST)
r 1.007367180 _7_ MAC  --- 0 AODV 48 [0 ffffffff 6 800] ------- [6:255 -1:255 28 0] [0x2 3 1 [9 0] [8 4]] (REQUEST)
r 1.007367363 _1_ MAC  --- 0 AODV 48 [0 ffffffff 6 800] ------- [6:255 -1:255 28 0] [0x2 3 1 [9 0] [8 4]] (REQUEST)
r 1.007367380 _4_ MAC  --- 0 AODV 48 [0 ffffffff 6 800] ------- [6:255 -1:255 28 0] [0x2 3 1 [9 0] [8 4]] (REQUEST)
r 1.007367472 _2_ MAC  --- 0 AODV 48 [0 ffffffff 6 800] ------- [6:255 -1:255 28 0] [0x2 3 1 [9 0] [8 4]] (REQUEST)
r 1.007392052 _5_ RTR  --- 0 AODV 48 [0 ffffffff 6 800] ------- [6:255 -1:255 28 0] [0x2 3 1 [9 0] [8 4]] (REQUEST)
r 1.007392079 _9_ RTR  --- 0 AODV 48 [0 ffffffff 6 800] ------- [6:255 -1:255 28 0] [0x2 3 1 [9 0] [8 4]] (REQUEST)
s 1.007392079 _9_ RTR  --- 0 AODV 44 [0 0 0 0] ------- [9:255 8:255 30 6] [0x4 1 [9 4] 10.000000] (REPLY)
r 1.007392090 _3_ RTR  --- 0 AODV 48 [0 ffffffff 6 800] ------- [6:255 -1:255 28 0] [0x2 3 1 [9 0] [8 4]] (REQUEST)
r 1.007392180 _7_ RTR  --- 0 AODV 48 [0 ffffffff 6 800] ------- [6:255 -1:255 28 0] [0x2 3 1 [9 0] [8 4]] (REQUEST)
r 1.007392363 _1_ RTR  --- 0 AODV 48 [0 ffffffff 6 800] ------- [6:255 -1:255 28 0] [0x2 3 1 [9 0] [8 4]] (REQUEST)
r 1.007392380 _4_ RTR  --- 0 AODV 48 [0 ffffffff 6 800] ------- [6:255 -1:255 28 0] [0x2 3 1 [9 0] [8 4]] (REQUEST)
r 1.007392472 _2_ RTR  --- 0 AODV 48 [0 ffffffff 6 800] ------- [6:255 -1:255 28 0] [0x2 3 1 [9 0] [8 4]] (REQUEST)
s 1.007927079 _9_ MAC  --- 0 ARP 86 [0 ffffffff 9 806] ------- [REQUEST 9/9 0/6]
s 1.008000000 _8_ AGT  --- 1 cbr 1000 [0 0 0 0] ------- [8:0 9:0 32 0] [1] 0 0
r 1.008000000 _8_ RTR  --- 1 cbr 1000 [0 0 0 0] ------- [8:0 9:0 32 0] [1] 0 0
r 1.008615463 _6_ MAC  --- 0 ARP 28 [0 ffffffff 9 806] ------- [REQUEST 9/9 0/6]
r 1.008615557 _7_ MAC  --- 0 ARP 28 [0 ffffffff 9 806] ------- [REQUEST 9/9 0/6]
r 1.008615757 _5_ MAC  --- 0 ARP 28 [0 ffffffff 9 806] ------- [REQUEST 9/9 0/6]
r 1.008615796 _3_ MAC  --- 0 ARP 28 [0 ffffffff 9 806] ------- [REQUEST 9/9 0/6]
s 1.008887811 _5_ RTR  --- 0 AODV 48 [0 ffffffff 1 800] ------- [5:255 -1:255 28 0] [0x2 3 1 [9 0] [8 4]] (REQUEST)
s 1.008990463 _6_ MAC  --- 0 RTS 44 [52e 9 6 0] 
r 1.009342846 _9_ MAC  --- 0 RTS 44 [52e 9 6 0] 
s 1.009352846 _9_ MAC  --- 0 CTS 38 [3f4 6 0 0] 
r 1.009657229 _6_ MAC  --- 0 CTS 38 [3f4 6 0 0] 
s 1.009667229 _6_ MAC  --- 0 ARP 86 [13a 9 6 806] ------- [REPLY 6/6 9/9]
r 1.010355612 _9_ MAC  --- 0 ARP 28 [13a 9 6 806] ------- [REPLY 6/6 9/9]
s 1.010365612 _9_ MAC  --- 0 ACK 38 [0 6 0 0] 
r 1.010669995 _6_ MAC  --- 0 ACK 38 [0 6 0 0] 
s 1.010739612 _9_ MAC  --- 0 RTS 44 [5ae 6 9 0] 
r 1.011091995 _6_ MAC  --- 0 RTS 44 [5ae 6 9 0] 
s 1.011101995 _6_ MAC  --- 0 CTS 38 [474 9 0 0] 
r 1.011406378 _9_ MAC  --- 0 CTS 38 [474 9 0 0] 
s 1.011416378 _9_ MAC  --- 0 AODV 102 [13a 6 9 800] ------- [9:255 8:255 30 6] [0x4 1 [9 4] 10.000000] (REPLY)
s 1.011628747 _7_ RTR  --- 0 AODV 48 [0 ffffffff 6 800] ------- [7:255 -1:255 27 0] [0x2 4 1 [9 0] [8 4]] (REQUEST)
r 1.012232761 _6_ MAC  --- 0 AODV 44 [13a 6 9 800] ------- [9:255 8:255 30 6] [0x4 1 [9 4] 10.000000] (REPLY)
s 1.012242761 _6_ MAC  --- 0 ACK 38 [0 9 0 0] 
r 1.012257761 _6_ RTR  --- 0 AODV 44 [13a 6 9 800] ------- [9:255 8:255 30 6] [0x4 1 [9 4] 10.000000] (REPLY)
f 1.012257761 _6_ RTR  --- 0 AODV 44 [13a 6 9 800] ------- [9:255 8:255 29 1] [0x4 2 [9 4] 10.000000] (REPLY)
r 1.012547144 _9_ MAC  --- 0 ACK 38 [0 9 0 0] 
s 1.012617245 _7_ MAC  --- 0 AODV 106 [0 ffffffff 7 800] ------- [7:255 -1:255 27 0] [0x2 4 1 [9 0] [8 4]] (REQUEST)
r 1.013465684 _0_ MAC  --- 0 AODV 48 [0 ffffffff 7 800] ------- [7:255 -1:255 27 0] [0x2 4 1 [9 0] [8 4]] (REQUEST)
r 1.013465722 _9_ MAC  --- 0 AODV 48 [0 ffffffff 7 800] ------- [7:255 -1:255 27 0] [0x2 4 1 [9 0] [8 4]] (REQUEST)
r 1.013465729 _6_ MAC  --- 0 AODV 48 [0 ffffffff 7 800] ------- [7:255 -1:255 27 0] [0x2 4 1 [9 0] [8 4]] (REQUEST)
r 1.013465746 _3_ MAC  --- 0 AODV 48 [0 ffffffff 7 800] ------- [7:255 -1:255 27 0] [0x2 4 1 [9 0] [8 4]] (REQUEST)
r 1.013465873 _2_ MAC  --- 0 AODV 48 [0 ffffffff 7 800] ------- [7:255 -1:255 27 0] [0x2 4 1 [9 0] [8 4]] (REQUEST)
r 1.013466073 _5_ MAC  --- 0 AODV 48 [0 ffffffff 7 800] ------- [7:255 -1:255 27 0] [0x2 4 1 [9 0] [8 4]] (REQUEST)
r 1.013490684 _0_ RTR  --- 0 AODV 48 [0 ffffffff 7 800] ------- [7:255 -1:255 27 0] [0x2 4 1 [9 0] [8 4]] (REQUEST)
r 1.013490722 _9_ RTR  --- 0 AODV 48 [0 ffffffff 7 800] ------- [7:255 -1:255 27 0] [0x2 4 1 [9 0] [8 4]] (REQUEST)
r 1.013490729 _6_ RTR  --- 0 AODV 48 [0 ffffffff 7 800] ------- [7:255 -1:255 27 0] [0x2 4 1 [9 0] [8 4]] (REQUEST)
r 1.013490746 _3_ RTR  --- 0 AODV 48 [0 ffffffff 7 800] ------- [7:255 -1:255 27 0] [0x2 4 1 [9 0] [8 4]] (REQUEST)
r 1.013490873 _2_ RTR  --- 0 AODV 48 [0 ffffffff 7 800] ------- [7:255 -1:255 27 0] [0x2 4 1 [9 0] [8 4]] (REQUEST)
r 1.013491073 _5_ RTR  --- 0 AODV 48 [0 ffffffff 7 800] ------- [7:255 -1:255 27 0] [0x2 4 1 [9 0] [8 4]] (REQUEST)
s 1.013676073 _5_ MAC  --- 0 AODV 106 [0 ffffffff 5 800] ------- [5:255 -1:255 28 0] [0x2 3 1 [9 0] [8 4]] (REQUEST)
r 1.014524428 _6_ MAC  --- 0 AODV 48 [0 ffffffff 5 800] ------- [5:255 -1:255 28 0] [0x2 3 1 [9 0] [8 4]] (REQUEST)
r 1.014524471 _4_ MAC  --- 0 AODV 48 [0 ffffffff 5 800] ------- [5:255 -1:255 28 0] [0x2 3 1 [9 0] [8 4]] (REQUEST)
r 1.014524614 _3_ MAC  --- 0 AODV 48 [0 ffffffff 5 800] ------- [5:255 -1:255 28 0] [0x2 3 1 [9 0] [8 4]] (REQUEST)
r 1.014524679 _1_ MAC  --- 0 AODV 48 [0 ffffffff 5 800] ------- [5:255 -1:255 28 0] [0x2 3 1 [9 0] [8 4]] (REQUEST)
r 1.014524751 _9_ MAC  --- 0 AODV 48 [0 ffffffff 5 800] ------- [5:255 -1:255 28 0] [0x2 3 1 [9 0] [8 4]] (REQUEST)
r 1.014524901 _7_ MAC  --- 0 AODV 48 [0 ffffffff 5 800] ------- [5:255 -1:255 28 0] [0x2 3 1 [9 0] [8 4]] (REQUEST)
r 1.014549428 _6_ RTR  --- 0 AODV 48 [0 ffffffff 5 800] ------- [5:255 -1:255 28 0] [0x2 3 1 [9 0] [8 4]] (REQUEST)
r 1.014549471 _4_ RTR  --- 0 AODV 48 [0 ffffffff 5 800] ------- [5:255 -1:255 28 0] [0x2 3 1 [9 0] [8 4]] (REQUEST)
r 1.014549614 _3_ RTR  --- 0 AODV 48 [0 ffffffff 5 800] ------- [5:255 -1:255 28 0] [0x2 3 1 [9 0] [8 4]] (REQUEST)
r 1.014549679 _1_ RTR  --- 0 AODV 48 [0 ffffffff 5 800] ------- [5:255 -1:255 28 0] [0x2 3 1 [9 0] [8 4]] (REQUEST)
r 1.014549751 _9_ RTR  --- 0 AODV 48 [0 ffffffff 5 800] ------- [5:255 -1:255 28 0] [0x2 3 1 [9 0] [8 4]] (REQUEST)
r 1.014549901 _7_ RTR  --- 0 AODV 48 [0 ffffffff 5 800] ------- [5:255 -1:255 28 0] [0x2 3 1 [9 0] [8 4]] (REQUEST)
s 1.014614428 _6_ MAC  --- 0 ARP 86 [0 ffffffff 6 806] ------- [REQUEST 6/6 0/1]
r 1.015302783 _5_ MAC  --- 0 ARP 28 [0 ffffffff 6 806] ------- [REQUEST 6/6 0/1]
r 1.015302811 _9_ MAC  --- 0 ARP 28 [0 ffffffff 6 806] ------- [REQUEST 6/6 0/1]
r 1.015302822 _3_ MAC  --- 0 ARP 28 [0 ffffffff 6 806] ------- [REQUEST 6/6 0/1]
r 1.015302912 _7_ MAC  --- 0 ARP 28 [0 ffffffff 6 806] ------- [REQUEST 6/6 0/1]
r 1.015303095 _1_ MAC  --- 0 ARP 28 [0 ffffffff 6 806] ------- [REQUEST 6/6 0/1]
r 1.015303112 _4_ MAC  --- 0 ARP 28 [0 ffffffff 6 806] ------- [REQUEST 6/6 0/1]
r 1.015303204 _2_ MAC  --- 0 ARP 28 [0 ffffffff 6 806] ------- [REQUEST 6/6 0/1]
s 1.015898095 _1_ MAC  --- 0 RTS 44 [52e 6 1 0] 
s 1.016000000 _8_ AGT  --- 2 cbr 1000 [0 0 0 0] ------- [8:0 9:0 32 0] [2] 0 0
r 1.016000000 _8_ RTR  --- 2 cbr 1000 [0 0 0 0] ------- [8:0 9:0 32 0] [2] 0 0
r 1.016250761 _6_ MAC  --- 0 RTS 44 [52e 6 1 0] 
s 1.016260761 _6_ MAC  --- 0 CTS 38 [3f4 1 0 0] 
r 1.016565428 _1_ MAC  --- 0 CTS 38 [3f4 1 0 0] 
s 1.016575428 _1_ MAC  --- 0 ARP 86 [13a 6 1 806] ------- [REPLY 1/1 6/6]
r 1.017264095 _6_ MAC  --- 0 ARP 28 [13a 6 1 806] ------- [REPLY 1/1 6/6]
s 1.017274095 _6_ MAC  --- 0 ACK 38 [0 1 0 0] 
r 1.017578762 _1_ MAC  --- 0 ACK 38 [0 1 0 0] 
s 1.017988095 _6_ MAC  --- 0 RTS 44 [5ae 1 6 0] 
r 1.018340762 _1_ MAC  --- 0 RTS 44 [5ae 1 6 0] 
s 1.018350762 _1_ MAC  --- 0 CTS 38 [474 6 0 0] 
r 1.018655428 _6_ MAC  --- 0 CTS 38 [474 6 0 0] 
s 1.018665428 _6_ MAC  --- 0 AODV 102 [13a 1 6 800] ------- [9:255 8:255 29 1] [0x4 2 [9 4] 10.000000] (REPLY)
r 1.019482095 _1_ MAC  --- 0 AODV 44 [13a 1 6 800] ------- [9:255 8:255 29 1] [0x4 2 [9 4] 10.000000] (REPLY)
s 1.019492095 _1_ MAC  --- 0 ACK 38 [0 6 0 0] 
r 1.019507095 _1_ RTR  --- 0 AODV 44 [13a 1 6 800] ------- [9:255 8:255 29 1] [0x4 2 [9 4] 10.000000] (REPLY)
f 1.019507095 _1_ RTR  --- 0 AODV 44 [13a 1 6 800] ------- [9:255 8:255 28 8] [0x4 3 [9 4] 10.000000] (REPLY)
r 1.019796762 _6_ MAC  --- 0 ACK 38 [0 6 0 0] 
s 1.020146095 _1_ MAC  --- 0 ARP 86 [0 ffffffff 1 806] ------- [REQUEST 1/1 0/8]
s 1.020413752 _0_ RTR  --- 0 AODV 48 [0 ffffffff 7 800] ------- [0:255 -1:255 26 0] [0x2 5 1 [9 0] [8 4]] (REQUEST)
r 1.020834462 _3_ MAC  --- 0 ARP 28 [0 ffffffff 1 806] ------- [REQUEST 1/1 0/8]
r 1.020834537 _4_ MAC  --- 0 ARP 28 [0 ffffffff 1 806] ------- [REQUEST 1/1 0/8]
r 1.020834602 _8_ MAC  --- 0 ARP 28 [0 ffffffff 1 806] ------- [REQUEST 1/1 0/8]
r 1.020834628 _2_ MAC  --- 0 ARP 28 [0 ffffffff 1 806] ------- [REQUEST 1/1 0/8]
r 1.020834701 _5_ MAC  --- 0 ARP 28 [0 ffffffff 1 806] ------- [REQUEST 1/1 0/8]
r 1.020834762 _6_ MAC  --- 0 ARP 28 [0 ffffffff 1 806] ------- [REQUEST 1/1 0/8]
s 1.021169602 _8_ MAC  --- 0 RTS 44 [52e 1 8 0] 
r 1.021522109 _1_ MAC  --- 0 RTS 44 [52e 1 8 0] 
s 1.021532109 _1_ MAC  --- 0 CTS 38 [3f4 8 0 0] 
r 1.021836616 _8_ MAC  --- 0 CTS 38 [3f4 8 0 0] 
s 1.021846616 _8_ MAC  --- 0 ARP 86 [13a 1 8 806] ------- [REPLY 8/8 1/1]
r 1.022535123 _1_ MAC  --- 0 ARP 28 [13a 1 8 806] ------- [REPLY 8/8 1/1]
s 1.022545123 _1_ MAC  --- 0 ACK 38 [0 8 0 0] 
r 1.022849630 _8_ MAC  --- 0 ACK 38 [0 8 0 0] 
s 1.023099123 _1_ MAC  --- 0 RTS 44 [5ae 8 1 0] 
r 1.023451630 _8_ MAC  --- 0 RTS 44 [5ae 8 1 0] 
s 1.023461630 _8_ MAC  --- 0 CTS 38 [474 1 0 0] 
r 1.023766137 _1_ MAC  --- 0 CTS 38 [474 1 0 0] 
s 1.023776137 _1_ MAC  --- 0 AODV 102 [13a 8 1 800] ------- [9:255 8:255 28 8] [0x4 3 [9 4] 10.000000] (REPLY)
s 1.024000000 _8_ AGT  --- 3 cbr 1000 [0 0 0 0] ------- [8:0 9:0 32 0] [3] 0 0
r 1.024000000 _8_ RTR  --- 3 cbr 1000 [0 0 0 0] ------- [8:0 9:0 32 0] [3] 0 0
r 1.024592644 _8_ MAC  --- 0 AODV 44 [13a 8 1 800] ------- [9:255 8:255 28 8] [0x4 3 [9 4] 10.000000] (REPLY)
s 1.024602644 _8_ MAC  --- 0 ACK 38 [0 1 0 0] 
r 1.024617644 _8_ RTR  --- 0 AODV 44 [13a 8 1 800] ------- [9:255 8:255 28 8] [0x4 3 [9 4] 10.000000] (REPLY)
s 1.024617644 _8_ RTR  --- 0 cbr 1020 [0 0 0 0] ------- [8:0 9:0 30 1] [0] 0 0
r 1.024907150 _1_ MAC  --- 0 ACK 38 [0 1 0 0] 
s 1.025461594 _0_ MAC  --- 0 AODV 106 [0 ffffffff 0 800] ------- [0:255 -1:255 26 0] [0x2 5 1 [9 0] [8 4]] (REQUEST)
r 1.026310033 _7_ MAC  --- 0 AODV 48 [0 ffffffff 0 800] ------- [0:255 -1:255 26 0] [0x2 5 1 [9 0] [8 4]] (REQUEST)
r 1.026310091 _2_ MAC  --- 0 AODV 48 [0 ffffffff 0 800] ------- [0:255 -1:255 26 0] [0x2 5 1 [9 0] [8 4]] (REQUEST)
r 1.026310274 _3_ MAC  --- 0 AODV 48 [0 ffffffff 0 800] ------- [0:255 -1:255 26 0] [0x2 5 1 [9 0] [8 4]] (REQUEST)
r 1.026335033 _7_ RTR  --- 0 AODV 48 [0 ffffffff 0 800] ------- [0:255 -1:255 26 0] [0x2 5 1 [9 0] [8 4]] (REQUEST)
r 1.026335091 _2_ RTR  --- 0 AODV 48 [0 ffffffff 0 800] ------- [0:255 -1:255 26 0] [0x2 5 1 [9 0] [8 4]] (REQUEST)
r 1.026335274 _3_ RTR  --- 0 AODV 48 [0 ffffffff 0 800] ------- [0:255 -1:255 26 0] [0x2 5 1 [9 0] [8 4]] (REQUEST)
s 1.026744544 _8_ MAC  --- 0 RTS 44 [242e 1 8 0] 
r 1.027097051 _1_ MAC  --- 0 RTS 44 [242e 1 8 0] 
s 1.027107051 _1_ MAC  --- 0 CTS 38 [22f4 8 0 0] 
r 1.027411558 _8_ MAC  --- 0 CTS 38 [22f4 8 0 0] 
s 1.027421558 _8_ MAC  --- 0 cbr 1078 [13a 1 8 800] ------- [8:0 9:0 30 1] [0] 0 0
s 1.032000000 _8_ AGT  --- 4 cbr 1000 [0 0 0 0] ------- [8:0 9:0 32 0] [4] 0 0
r 1.032000000 _8_ RTR  --- 4 cbr 1000 [0 0 0 0] ------- [8:0 9:0 32 0] [4] 0 0
s 1.032000000 _8_ RTR  --- 4 cbr 1020 [0 0 0 0] ------- [8:0 9:0 30 1] [4] 0 0
s 1.034617644 _8_ RTR  --- 1 cbr 1020 [0 0 0 0] ------- [8:0 9:0 30 1] [1] 0 0
r 1.036046065 _1_ MAC  --- 0 cbr 1020 [13a 1 8 800] ------- [8:0 9:0 30 1] [0] 1 0
s 1.036056065 _1_ MAC  --- 0 ACK 38 [0 8 0 0] 
r 1.036071065 _1_ RTR  --- 0 cbr 1020 [13a 1 8 800] ------- [8:0 9:0 30 1] [0] 1 0
f 1.036071065 _1_ RTR  --- 0 cbr 1020 [13a 1 8 800] ------- [8:0 9:0 29 6] [0] 1 0
r 1.036360572 _8_ MAC  --- 0 ACK 38 [0 8 0 0] 
s 1.036470572 _8_ MAC  --- 0 RTS 44 [242e 1 8 0] 
r 1.036823079 _1_ MAC  --- 0 RTS 44 [242e 1 8 0] 
s 1.036833079 _1_ MAC  --- 0 CTS 38 [22f4 8 0 0] 
r 1.037137586 _8_ MAC  --- 0 CTS 38 [22f4 8 0 0] 
s 1.037147586 _8_ MAC  --- 4 cbr 1078 [13a 1 8 800] ------- [8:0 9:0 30 1] [4] 0 0
s 1.040000000 _8_ AGT  --- 5 cbr 1000 [0 0 0 0] ------- [8:0 9:0 32 0] [5] 0 0
r 1.040000000 _8_ RTR  --- 5 cbr 1000 [0 0 0 0] ------- [8:0 9:0 32 0] [5] 0 0
s 1.040000000 _8_ RTR  --- 5 cbr 1020 [0 0 0 0] ------- [8:0 9:0 30 1] [5] 0 0
s 1.044617644 _8_ RTR  --- 2 cbr 1020 [0 0 0 0] ------- [8:0 9:0 30 1] [2] 0 0
r 1.045772093 _1_ MAC  --- 4 cbr 1020 [13a 1 8 800] ------- [8:0 9:0 30 1] [4] 1 0
s 1.045782093 _1_ MAC  --- 0 ACK 38 [0 8 0 0] 
r 1.045797093 _1_ RTR  --- 4 cbr 1020 [13a 1 8 800] ------- [8:0 9:0 30 1] [4] 1 0
f 1.045797093 _1_ RTR  --- 4 cbr 1020 [13a 1 8 800] ------- [8:0 9:0 29 6] [4] 1 0
r 1.046086600 _8_ MAC  --- 0 ACK 38 [0 8 0 0] 
s 1.046256600 _8_ MAC  --- 0 RTS 44 [242e 1 8 0] 
r 1.046609107 _1_ MAC  --- 0 RTS 44 [242e 1 8 0] 
s 1.046619107 _1_ MAC  --- 0 CTS 38 [22f4 8 0 0] 
r 1.046923614 _8_ MAC  --- 0 CTS 38 [22f4 8 0 0] 
s 1.046933614 _8_ MAC  --- 1 cbr 1078 [13a 1 8 800] ------- [8:0 9:0 30 1] [1] 0 0
s 1.048000000 _8_ AGT  --- 6 cbr 1000 [0 0 0 0] ------- [8:0 9:0 32 0] [6] 0 0
r 1.048000000 _8_ RTR  --- 6 cbr 1000 [0 0 0 0] ------- [8:0 9:0 32 0] [6] 0 0
s 1.048000000 _8_ RTR  --- 6 cbr 1020 [0 0 0 0] ------- [8:0 9:0 30 1] [6] 0 0
s 1.054617644 _8_ RTR  --- 3 cbr 1020 [0 0 0 0] ------- [8:0 9:0 30 1] [3] 0 0
r 1.055558121 _1_ MAC  --- 1 cbr 1020 [13a 1 8 800] ------- [8:0 9:0 30 1] [1] 1 0
s 1.055568121 _1_ MAC  --- 0 ACK 38 [0 8 0 0] 
r 1.055583121 _1_ RTR  --- 1 cbr 1020 [13a 1 8 800] ------- [8:0 9:0 30 1] [1] 1 0
f 1.055583121 _1_ RTR  --- 1 cbr 1020 [13a 1 8 800] ------- [8:0 9:0 29 6] [1] 1 0
r 1.055872628 _8_ MAC  --- 0 ACK 38 [0 8 0 0] 
s 1.056000000 _8_ AGT  --- 7 cbr 1000 [0 0 0 0] ------- [8:0 9:0 32 0] [7] 0 0
r 1.056000000 _8_ RTR  --- 7 cbr 1000 [0 0 0 0] ------- [8:0 9:0 32 0] [7] 0 0
s 1.056000000 _8_ RTR  --- 7 cbr 1020 [0 0 0 0] ------- [8:0 9:0 30 1] [7] 0 0
s 1.056262628 _8_ MAC  --- 0 RTS 44 [242e 1 8 0] 
r 1.056615135 _1_ MAC  --- 0 RTS 44 [242e 1 8 0] 
s 1.056625135 _1_ MAC  --- 0 CTS 38 [22f4 8 0 0] 
r 1.056929642 _8_ MAC  --- 0 CTS 38 [22f4 8 0 0] 
s 1.056939642 _8_ MAC  --- 5 cbr 1078 [13a 1 8 800] ------- [8:0 9:0 30 1] [5] 0 0
s 1.064000000 _8_ AGT  --- 8 cbr 1000 [0 0 0 0] ------- [8:0 9:0 32 0] [8] 0 0
r 1.064000000 _8_ RTR  --- 8 cbr 1000 [0 0 0 0] ------- [8:0 9:0 32 0] [8] 0 0
s 1.064000000 _8_ RTR  --- 8 cbr 1020 [0 0 0 0] ------- [8:0 9:0 30 1] [8] 0 0
r 1.065564149 _1_ MAC  --- 5 cbr 1020 [13a 1 8 800] ------- [8:0 9:0 30 1] [5] 1 0
s 1.065574149 _1_ MAC  --- 0 ACK 38 [0 8 0 0] 
r 1.065589149 _1_ RTR  --- 5 cbr 1020 [13a 1 8 800] ------- [8:0 9:0 30 1] [5] 1 0
f 1.065589149 _1_ RTR  --- 5 cbr 1020 [13a 1 8 800] ------- [8:0 9:0 29 6] [5] 1 0
r 1.065878656 _8_ MAC  --- 0 ACK 38 [0 8 0 0] 
s 1.065988149 _1_ MAC  --- 0 RTS 44 [242e 6 1 0] 
r 1.066340815 _6_ MAC  --- 0 RTS 44 [242e 6 1 0] 
s 1.066350815 _6_ MAC  --- 0 CTS 38 [22f4 1 0 0] 
r 1.066655482 _1_ MAC  --- 0 CTS 38 [22f4 1 0 0] 
s 1.066665482 _1_ MAC  --- 0 cbr 1078 [13a 6 1 800] ------- [8:0 9:0 29 6] [0] 1 0
s 1.072000000 _8_ AGT  --- 9 cbr 1000 [0 0 0 0] ------- [8:0 9:0 32 0] [9] 0 0
r 1.072000000 _8_ RTR  --- 9 cbr 1000 [0 0 0 0] ------- [8:0 9:0 32 0] [9] 0 0
s 1.072000000 _8_ RTR  --- 9 cbr 1020 [0 0 0 0] ------- [8:0 9:0 30 1] [9] 0 0
r 1.075290149 _6_ MAC  --- 0 cbr 1020 [13a 6 1 800] ------- [8:0 9:0 29 6] [0] 2 0
s 1.075300149 _6_ MAC  --- 0 ACK 38 [0 1 0 0] 
r 1.075315149 _6_ RTR  --- 0 cbr 1020 [13a 6 1 800] ------- [8:0 9:0 29 6] [0] 2 0
f 1.075315149 _6_ RTR  --- 0 cbr 1020 [13a 6 1 800] ------- [8:0 9:0 28 9] [0] 2 0
r 1.075604815 _1_ MAC  --- 0 ACK 38 [0 1 0 0] 
s 1.075834815 _1_ MAC  --- 0 RTS 44 [242e 6 1 0] 
r 1.076187482 _6_ MAC  --- 0 RTS 44 [242e 6 1 0] 
s 1.076197482 _6_ MAC  --- 0 CTS 38 [22f4 1 0 0] 
r 1.076502149 _1_ MAC  --- 0 CTS 38 [22f4 1 0 0] 
s 1.076512149 _1_ MAC  --- 4 cbr 1078 [13a 6 1 800] ------- [8:0 9:0 29 6] [4] 1 0
s 1.080000000 _8_ AGT  --- 10 cbr 1000 [0 0 0 0] ------- [8:0 9:0 32 0] [10] 0 0
r 1.080000000 _8_ RTR  --- 10 cbr 1000 [0 0 0 0] ------- [8:0 9:0 32 0] [10] 0 0
s 1.080000000 _8_ RTR  --- 10 cbr 1020 [0 0 0 0] ------- [8:0 9:0 30 1] [10] 0 0
r 1.085136815 _6_ MAC  --- 4 cbr 1020 [13a 6 1 800] ------- [8:0 9:0 29 6] [4] 2 0
s 1.085146815 _6_ MAC  --- 0 ACK 38 [0 1 0 0] 
r 1.085161815 _6_ RTR  --- 4 cbr 1020 [13a 6 1 800] ------- [8:0 9:0 29 6] [4] 2 0
f 1.085161815 _6_ RTR  --- 4 cbr 1020 [13a 6 1 800] ------- [8:0 9:0 28 9] [4] 2 0
r 1.085451482 _1_ MAC  --- 0 ACK 38 [0 1 0 0] 
s 1.085600815 _6_ MAC  --- 0 RTS 44 [242e 9 6 0] 
r 1.085953198 _9_ MAC  --- 0 RTS 44 [242e 9 6 0] 
s 1.085963198 _9_ MAC  --- 0 CTS 38 [22f4 6 0 0] 
r 1.086267582 _6_ MAC  --- 0 CTS 38 [22f4 6 0 0] 
s 1.086277582 _6_ MAC  --- 0 cbr 1078 [13a 9 6 800] ------- [8:0 9:0 28 9] [0] 2 0
s 1.088000000 _8_ AGT  --- 11 cbr 1000 [0 0 0 0] ------- [8:0 9:0 32 0] [11] 0 0
r 1.088000000 _8_ RTR  --- 11 cbr 1000 [0 0 0 0] ------- [8:0 9:0 32 0] [11] 0 0
s 1.088000000 _8_ RTR  --- 11 cbr 1020 [0 0 0 0] ------- [8:0 9:0 30 1] [11] 0 0
r 1.094901965 _9_ MAC  --- 0 cbr 1020 [13a 9 6 800] ------- [8:0 9:0 28 9] [0] 3 0
s 1.094911965 _9_ MAC  --- 0 ACK 38 [0 6 0 0] 
r 1.094926965 _9_ AGT  --- 0 cbr 1020 [13a 9 6 800] ------- [8:0 9:0 28 9] [0] 3 0
r 1.095216348 _6_ MAC  --- 0 ACK 38 [0 6 0 0] 
s 1.095746348 _6_ MAC  --- 0 RTS 44 [242e 9 6 0] 
s 1.096000000 _8_ AGT  --- 12 cbr 1000 [0 0 0 0] ------- [8:0 9:0 32 0] [12] 0 0
r 1.096000000 _8_ RTR  --- 12 cbr 1000 [0 0 0 0] ------- [8:0 9:0 32 0] [12] 0 0
s 1.096000000 _8_ RTR  --- 12 cbr 1020 [0 0 0 0] ------- [8:0 9:0 30 1] [12] 0 0
r 1.096098731 _9_ MAC  --- 0 RTS 44 [242e 9 6 0] 
s 1.096108731 _9_ MAC  --- 0 CTS 38 [22f4 6 0 0] 
r 1.096413114 _6_ MAC  --- 0 CTS 38 [22f4 6 0 0] 
s 1.096423114 _6_ MAC  --- 4 cbr 1078 [13a 9 6 800] ------- [8:0 9:0 28 9] [4] 2 0
s 1.104000000 _8_ AGT  --- 13 cbr 1000 [0 0 0 0] ------- [8:0 9:0 32 0] [13] 0 0
r 1.104000000 _8_ RTR  --- 13 cbr 1000 [0 0 0 0] ------- [8:0 9:0 32 0] [13] 0 0
s 1.104000000 _8_ RTR  --- 13 cbr 1020 [0 0 0 0] ------- [8:0 9:0 30 1] [13] 0 0
r 1.105047497 _9_ MAC  --- 4 cbr 1020 [13a 9 6 800] ------- [8:0 9:0 28 9] [4] 3 0
s 1.105057497 _9_ MAC  --- 0 ACK 38 [0 6 0 0] 
r 1.105072497 _9_ AGT  --- 4 cbr 1020 [13a 9 6 800] ------- [8:0 9:0 28 9] [4] 3 0
r 1.105361880 _6_ MAC  --- 0 ACK 38 [0 6 0 0] 
s 1.105876535 _1_ MAC  --- 0 RTS 44 [242e 6 1 0] 
r 1.106229202 _6_ MAC  --- 0 RTS 44 [242e 6 1 0] 
s 1.106239202 _6_ MAC  --- 0 CTS 38 [22f4 1 0 0] 
r 1.106543868 _1_ MAC  --- 0 CTS 38 [22f4 1 0 0] 
s 1.106553868 _1_ MAC  --- 1 cbr 1078 [13a 6 1 800] ------- [8:0 9:0 29 6] [1] 1 0
s 1.112000000 _8_ AGT  --- 14 cbr 1000 [0 0 0 0] ------- [8:0 9:0 32 0] [14] 0 0
r 1.112000000 _8_ RTR  --- 14 cbr 1000 [0 0 0 0] ------- [8:0 9:0 32 0] [14] 0 0
s 1.112000000 _8_ RTR  --- 14 cbr 1020 [0 0 0 0] ------- [8:0 9:0 30 1] [14] 0 0
r 1.115178535 _6_ MAC  --- 1 cbr 1020 [13a 6 1 800] ------- [8:0 9:0 29 6] [1] 2 0
s 1.115188535 _6_ MAC  --- 0 ACK 38 [0 1 0 0] 
r 1.115203535 _6_ RTR  --- 1 cbr 1020 [13a 6 1 800] ------- [8:0 9:0 29 6] [1] 2 0
f 1.115203535 _6_ RTR  --- 1 cbr 1020 [13a 6 1 800] ------- [8:0 9:0 28 9] [1] 2 0
r 1.115493202 _1_ MAC  --- 0 ACK 38 [0 1 0 0] 
s 1.115762535 _6_ MAC  --- 0 RTS 44 [242e 9 6 0] 
r 1.116114918 _9_ MAC  --- 0 RTS 44 [242e 9 6 0] 
s 1.116124918 _9_ MAC  --- 0 CTS 38 [22f4 6 0 0] 
r 1.116429301 _6_ MAC  --- 0 CTS 38 [22f4 6 0 0] 
s 1.116439301 _6_ MAC  --- 1 cbr 1078 [13a 9 6 800] ------- [8:0 9:0 28 9] [1] 2 0
s 1.120000000 _8_ AGT  --- 15 cbr 1000 [0 0 0 0] ------- [8:0 9:0 32 0] [15] 0 0
r 1.120000000 _8_ RTR  --- 15 cbr 1000 [0 0 0 0] ------- [8:0 9:0 32 0] [15] 0 0
s 1.120000000 _8_ RTR  --- 15 cbr 1020 [0 0 0 0] ------- [8:0 9:0 30 1] [15] 0 0
r 1.125063684 _9_ MAC  --- 1 cbr 1020 [13a 9 6 800] ------- [8:0 9:0 28 9] [1] 3 0
s 1.125073684 _9_ MAC  --- 0 ACK 38 [0 6 0 0] 
r 1.125088684 _9_ AGT  --- 1 cbr 1020 [13a 9 6 800] ------- [8:0 9:0 28 9] [1] 3 0
r 1.125378068 _6_ MAC  --- 0 ACK 38 [0 6 0 0] 
s 1.125912723 _1_ MAC  --- 0 RTS 44 [242e 6 1 0] 
r 1.126265389 _6_ MAC  --- 0 RTS 44 [242e 6 1 0] 
s 1.126275389 _6_ MAC  --- 0 CTS 38 [22f4 1 0 0] 
r 1.126580056 _1_ MAC  --- 0 CTS 38 [22f4 1 0 0] 
s 1.126590056 _1_ MAC  --- 5 cbr 1078 [13a 6 1 800] ------- [8:0 9:0 29 6] [5] 1 0
s 1.128000000 _8_ AGT  --- 16 cbr 1000 [0 0 0 0] ------- [8:0 9:0 32 0] [16] 0 0
r 1.128000000 _8_ RTR  --- 16 cbr 1000 [0 0 0 0] ------- [8:0 9:0 32 0] [16] 0 0
s 1.128000000 _8_ RTR  --- 16 cbr 1020 [0 0 0 0] ------- [8:0 9:0 30 1] [16] 0 0
r 1.135214723 _6_ MAC  --- 5 cbr 1020 [13a 6 1 800] ------- [8:0 9:0 29 6] [5] 2 0
s 1.135224723 _6_ MAC  --- 0 ACK 38 [0 1 0 0] 
r 1.135239723 _6_ RTR  --- 5 cbr 1020 [13a 6 1 800] ------- [8:0 9:0 29 6] [5] 2 0
f 1.135239723 _6_ RTR  --- 5 cbr 1020 [13a 6 1 800] ------- [8:0 9:0 28 9] [5] 2 0
r 1.135529389 _1_ MAC  --- 0 ACK 38 [0 1 0 0] 
s 1.135798723 _6_ MAC  --- 0 RTS 44 [242e 9 6 0] 
s 1.136000000 _8_ AGT  --- 17 cbr 1000 [0 0 0 0] ------- [8:0 9:0 32 0] [17] 0 0
r 1.136000000 _8_ RTR  --- 17 cbr 1000 [0 0 0 0] ------- [8:0 9:0 32 0] [17] 0 0
s 1.136000000 _8_ RTR  --- 17 cbr 1020 [0 0 0 0] ------- [8:0 9:0 30 1] [17] 0 0
r 1.136151106 _9_ MAC  --- 0 RTS 44 [242e 9 6 0] 
s 1.136161106 _9_ MAC  --- 0 CTS 38 [22f4 6 0 0] 
r 1.136465489 _6_ MAC  --- 0 CTS 38 [22f4 6 0 0] 
s 1.136475489 _6_ MAC  --- 5 cbr 1078 [13a 9 6 800] ------- [8:0 9:0 28 9] [5] 2 0
s 1.144000000 _8_ AGT  --- 18 cbr 1000 [0 0 0 0] ------- [8:0 9:0 32 0] [18] 0 0
r 1.144000000 _8_ RTR  --- 18 cbr 1000 [0 0 0 0] ------- [8:0 9:0 32 0] [18] 0 0
s 1.144000000 _8_ RTR  --- 18 cbr 1020 [0 0 0 0] ------- [8:0 9:0 30 1] [18] 0 0
r 1.145099872 _9_ MAC  --- 5 cbr 1020 [13a 9 6 800] ------- [8:0 9:0 28 9] [5] 3 0
s 1.145109872 _9_ MAC  --- 0 ACK 38 [0 6 0 0] 
r 1.145124872 _9_ AGT  --- 5 cbr 1020 [13a 9 6 800] ------- [8:0 9:0 28 9] [5] 3 0
r 1.145414255 _6_ MAC  --- 0 ACK 38 [0 6 0 0] 
s 1.145969273 _8_ MAC  --- 0 RTS 44 [242e 1 8 0] 
r 1.146321780 _1_ MAC  --- 0 RTS 44 [242e 1 8 0] 
s 1.146331780 _1_ MAC  --- 0 CTS 38 [22f4 8 0 0] 
r 1.146636287 _8_ MAC  --- 0 CTS 38 [22f4 8 0 0] 
s 1.146646287 _8_ MAC  --- 2 cbr 1078 [13a 1 8 800] ------- [8:0 9:0 30 1] [2] 0 0
s 1.152000000 _8_ AGT  --- 19 cbr 1000 [0 0 0 0] ------- [8:0 9:0 32 0] [19] 0 0
r 1.152000000 _8_ RTR  --- 19 cbr 1000 [0 0 0 0] ------- [8:0 9:0 32 0] [19] 0 0
s 1.152000000 _8_ RTR  --- 19 cbr 1020 [0 0 0 0] ------- [8:0 9:0 30 1] [19] 0 0
r 1.155270794 _1_ MAC  --- 2 cbr 1020 [13a 1 8 800] ------- [8:0 9:0 30 1] [2] 1 0
s 1.155280794 _1_ MAC  --- 0 ACK 38 [0 8 0 0] 
r 1.155295794 _1_ RTR  --- 2 cbr 1020 [13a 1 8 800] ------- [8:0 9:0 30 1] [2] 1 0
f 1.155295794 _1_ RTR  --- 2 cbr 1020 [13a 1 8 800] ------- [8:0 9:0 29 6] [2] 1 0
r 1.155585301 _8_ MAC  --- 0 ACK 38 [0 8 0 0] 
s 1.155634794 _1_ MAC  --- 0 RTS 44 [242e 6 1 0] 
r 1.155987461 _6_ MAC  --- 0 RTS 44 [242e 6 1 0] 
s 1.155997461 _6_ MAC  --- 0 CTS 38 [22f4 1 0 0] 
r 1.156302128 _1_ MAC  --- 0 CTS 38 [22f4 1 0 0] 
s 1.156312128 _1_ MAC  --- 2 cbr 1078 [13a 6 1 800] ------- [8:0 9:0 29 6] [2] 1 0
s 1.160000000 _8_ AGT  --- 20 cbr 1000 [0 0 0 0] ------- [8:0 9:0 32 0] [20] 0 0
r 1.160000000 _8_ RTR  --- 20 cbr 1000 [0 0 0 0] ------- [8:0 9:0 32 0] [20] 0 0
s 1.160000000 _8_ RTR  --- 20 cbr 1020 [0 0 0 0] ------- [8:0 9:0 30 1] [20] 0 0
r 1.164936794 _6_ MAC  --- 2 cbr 1020 [13a 6 1 800] ------- [8:0 9:0 29 6] [2] 2 0
s 1.164946794 _6_ MAC  --- 0 ACK 38 [0 1 0 0] 