s 0.000000000 _8_ AGT  --- 0 tcp 40 [0 0 0 0] ------- [8:0 9:0 32 0] [0 0] 0 0
r 0.000000000 _8_ RTR  --- 0 tcp 40 [0 0 0 0] ------- [8:0 9:0 32 0] [0 0] 0 0
s 0.000000000 _8_ RTR  --- 0 AODV 48 [0 0 0 0] ------- [8:255 -1:255 30 0] [0x2 1 1 [9 0] [8 4]] (REQUEST)
s 0.000115000 _8_ MAC  --- 0 AODV 106 [0 ffffffff 8 800] ------- [8:255 -1:255 30 0] [0x2 1 1 [9 0] [8 4]] (REQUEST)
r 0.000963469 _2_ MAC  --- 0 AODV 48 [0 ffffffff 8 800] ------- [8:255 -1:255 30 0] [0x2 1 1 [9 0] [8 4]] (REQUEST)
r 0.000963507 _1_ MAC  --- 0 AODV 48 [0 ffffffff 8 800] ------- [8:255 -1:255 30 0] [0x2 1 1 [9 0] [8 4]] (REQUEST)
r 0.000963691 _3_ MAC  --- 0 AODV 48 [0 ffffffff 8 800] ------- [8:255 -1:255 30 0] [0x2 1 1 [9 0] [8 4]] (REQUEST)
r 0.000988469 _2_ RTR  --- 0 AODV 48 [0 ffffffff 8 800] ------- [8:255 -1:255 30 0] [0x2 1 1 [9 0] [8 4]] (REQUEST)
r 0.000988507 _1_ RTR  --- 0 AODV 48 [0 ffffffff 8 800] ------- [8:255 -1:255 30 0] [0x2 1 1 [9 0] [8 4]] (REQUEST)
r 0.000988691 _3_ RTR  --- 0 AODV 48 [0 ffffffff 8 800] ------- [8:255 -1:255 30 0] [0x2 1 1 [9 0] [8 4]] (REQUEST)
s 0.001869696 _2_ RTR  --- 0 AODV 48 [0 ffffffff 8 800] ------- [2:255 -1:255 29 0] [0x2 2 1 [9 0] [8 4]] (REQUEST)
s 0.002104696 _2_ MAC  --- 0 AODV 106 [0 ffffffff 2 800] ------- [2:255 -1:255 29 0] [0x2 2 1 [9 0] [8 4]] (REQUEST)
r 0.002953104 _3_ MAC  --- 0 AODV 48 [0 ffffffff 2 800] ------- [2:255 -1:255 29 0] [0x2 2 1 [9 0] [8 4]] (REQUEST)
r 0.002953165 _8_ MAC  --- 0 AODV 48 [0 ffffffff 2 800] ------- [2:255 -1:255 29 0] [0x2 2 1 [9 0] [8 4]] (REQUEST)
r 0.002953193 _0_ MAC  --- 0 AODV 48 [0 ffffffff 2 800] ------- [2:255 -1:255 29 0] [0x2 2 1 [9 0] [8 4]] (REQUEST)
r 0.002953229 _1_ MAC  --- 0 AODV 48 [0 ffffffff 2 800] ------- [2:255 -1:255 29 0] [0x2 2 1 [9 0] [8 4]] (REQUEST)
r 0.002953324 _7_ MAC  --- 0 AODV 48 [0 ffffffff 2 800] ------- [2:255 -1:255 29 0] [0x2 2 1 [9 0] [8 4]] (REQUEST)
r 0.002953472 _6_ MAC  --- 0 AODV 48 [0 ffffffff 2 800] ------- [2:255 -1:255 29 0] [0x2 2 1 [9 0] [8 4]] (REQUEST)
r 0.002978104 _3_ RTR  --- 0 AODV 48 [0 ffffffff 2 800] ------- [2:255 -1:255 29 0] [0x2 2 1 [9 0] [8 4]] (REQUEST)
r 0.002978165 _8_ RTR  --- 0 AODV 48 [0 ffffffff 2 800] ------- [2:255 -1:255 29 0] [0x2 2 1 [9 0] [8 4]] (REQUEST)
r 0.002978193 _0_ RTR  --- 0 AODV 48 [0 ffffffff 2 800] ------- [2:255 -1:255 29 0] [0x2 2 1 [9 0] [8 4]] (REQUEST)
r 0.002978229 _1_ RTR  --- 0 AODV 48 [0 ffffffff 2 800] ------- [2:255 -1:255 29 0] [0x2 2 1 [9 0] [8 4]] (REQUEST)
r 0.002978324 _7_ RTR  --- 0 AODV 48 [0 ffffffff 2 800] ------- [2:255 -1:255 29 0] [0x2 2 1 [9 0] [8 4]] (REQUEST)
r 0.002978472 _6_ RTR  --- 0 AODV 48 [0 ffffffff 2 800] ------- [2:255 -1:255 29 0] [0x2 2 1 [9 0] [8 4]] (REQUEST)
s 0.005324210 _0_ RTR  --- 0 AODV 48 [0 ffffffff 2 800] ------- [0:255 -1:255 28 0] [0x2 3 1 [9 0] [8 4]] (REQUEST)
s 0.005400241 _1_ RTR  --- 0 AODV 48 [0 ffffffff 8 800] ------- [1:255 -1:255 29 0] [0x2 2 1 [9 0] [8 4]] (REQUEST)
s 0.005515241 _1_ MAC  --- 0 AODV 106 [0 ffffffff 1 800] ------- [1:255 -1:255 29 0] [0x2 2 1 [9 0] [8 4]] (REQUEST)
s 0.006069262 _6_ RTR  --- 0 AODV 48 [0 ffffffff 2 800] ------- [6:255 -1:255 28 0] [0x2 3 1 [9 0] [8 4]] (REQUEST)
r 0.006363608 _3_ MAC  --- 0 AODV 48 [0 ffffffff 1 800] ------- [1:255 -1:255 29 0] [0x2 2 1 [9 0] [8 4]] (REQUEST)
r 0.006363683 _4_ MAC  --- 0 AODV 48 [0 ffffffff 1 800] ------- [1:255 -1:255 29 0] [0x2 2 1 [9 0] [8 4]] (REQUEST)
r 0.006363748 _8_ MAC  --- 0 AODV 48 [0 ffffffff 1 800] ------- [1:255 -1:255 29 0] [0x2 2 1 [9 0] [8 4]] (REQUEST)
r 0.006363774 _2_ MAC  --- 0 AODV 48 [0 ffffffff 1 800] ------- [1:255 -1:255 29 0] [0x2 2 1 [9 0] [8 4]] (REQUEST)
r 0.006363847 _5_ MAC  --- 0 AODV 48 [0 ffffffff 1 800] ------- [1:255 -1:255 29 0] [0x2 2 1 [9 0] [8 4]] (REQUEST)
r 0.006363907 _6_ MAC  --- 0 AODV 48 [0 ffffffff 1 800] ------- [1:255 -1:255 29 0] [0x2 2 1 [9 0] [8 4]] (REQUEST)
r 0.006388608 _3_ RTR  --- 0 AODV 48 [0 ffffffff 1 800] ------- [1:255 -1:255 29 0] [0x2 2 1 [9 0] [8 4]] (REQUEST)
r 0.006388683 _4_ RTR  --- 0 AODV 48 [0 ffffffff 1 800] ------- [1:255 -1:255 29 0] [0x2 2 1 [9 0] [8 4]] (REQUEST)
r 0.006388748 _8_ RTR  --- 0 AODV 48 [0 ffffffff 1 800] ------- [1:255 -1:255 29 0] [0x2 2 1 [9 0] [8 4]] (REQUEST)
r 0.006388774 _2_ RTR  --- 0 AODV 48 [0 ffffffff 1 800] ------- [1:255 -1:255 29 0] [0x2 2 1 [9 0] [8 4]] (REQUEST)
r 0.006388847 _5_ RTR  --- 0 AODV 48 [0 ffffffff 1 800] ------- [1:255 -1:255 29 0] [0x2 2 1 [9 0] [8 4]] (REQUEST)
r 0.006388907 _6_ RTR  --- 0 AODV 48 [0 ffffffff 1 800] ------- [1:255 -1:255 29 0] [0x2 2 1 [9 0] [8 4]] (REQUEST)
s 0.006918210 _0_ MAC  --- 0 AODV 106 [0 ffffffff 0 800] ------- [0:255 -1:255 28 0] [0x2 3 1 [9 0] [8 4]] (REQUEST)
s 0.007526765 _4_ RTR  --- 0 AODV 48 [0 ffffffff 1 800] ------- [4:255 -1:255 28 0] [0x2 3 1 [9 0] [8 4]] (REQUEST)
r 0.007766649 _7_ MAC  --- 0 AODV 48 [0 ffffffff 0 800] ------- [0:255 -1:255 28 0] [0x2 3 1 [9 0] [8 4]] (REQUEST)
r 0.007766707 _2_ MAC  --- 0 AODV 48 [0 ffffffff 0 800] ------- [0:255 -1:255 28 0] [0x2 3 1 [9 0] [8 4]] (REQUEST)
r 0.007766890 _3_ MAC  --- 0 AODV 48 [0 ffffffff 0 800] ------- [0:255 -1:255 28 0] [0x2 3 1 [9 0] [8 4]] (REQUEST)
r 0.007791649 _7_ RTR  --- 0 AODV 48 [0 ffffffff 0 800] ------- [0:255 -1:255 28 0] [0x2 3 1 [9 0] [8 4]] (REQUEST)
r 0.007791707 _2_ RTR  --- 0 AODV 48 [0 ffffffff 0 800] ------- [0:255 -1:255 28 0] [0x2 3 1 [9 0] [8 4]] (REQUEST)
r 0.007791890 _3_ RTR  --- 0 AODV 48 [0 ffffffff 0 800] ------- [0:255 -1:255 28 0] [0x2 3 1 [9 0] [8 4]] (REQUEST)
s 0.008221075 _6_ MAC  --- 0 AODV 106 [0 ffffffff 6 800] ------- [6:255 -1:255 28 0] [0x2 3 1 [9 0] [8 4]] (REQUEST)
s 0.008980245 _3_ RTR  --- 0 AODV 48 [0 ffffffff 8 800] ------- [3:255 -1:255 29 0] [0x2 2 1 [9 0] [8 4]] (REQUEST)
r 0.009069431 _5_ MAC  --- 0 AODV 48 [0 ffffffff 6 800] ------- [6:255 -1:255 28 0] [0x2 3 1 [9 0] [8 4]] (REQUEST)
r 0.009069458 _9_ MAC  --- 0 AODV 48 [0 ffffffff 6 800] ------- [6:255 -1:255 28 0] [0x2 3 1 [9 0] [8 4]] (REQUEST)
r 0.009069469 _3_ MAC  --- 0 AODV 48 [0 ffffffff 6 800] ------- [6:255 -1:255 28 0] [0x2 3 1 [9 0] [8 4]] (REQUEST)
r 0.009069559 _7_ MAC  --- 0 AODV 48 [0 ffffffff 6 800] ------- [6:255 -1:255 28 0] [0x2 3 1 [9 0] [8 4]] (REQUEST)
r 0.009069742 _1_ MAC  --- 0 AODV 48 [0 ffffffff 6 800] ------- [6:255 -1:255 28 0] [0x2 3 1 [9 0] [8 4]] (REQUEST)
r 0.009069759 _4_ MAC  --- 0 AODV 48 [0 ffffffff 6 800] ------- [6:255 -1:255 28 0] [0x2 3 1 [9 0] [8 4]] (REQUEST)
r 0.009069851 _2_ MAC  --- 0 AODV 48 [0 ffffffff 6 800] ------- [6:255 -1:255 28 0] [0x2 3 1 [9 0] [8 4]] (REQUEST)
r 0.009094431 _5_ RTR  --- 0 AODV 48 [0 ffffffff 6 800] ------- [6:255 -1:255 28 0] [0x2 3 1 [9 0] [8 4]] (REQUEST)
r 0.009094458 _9_ RTR  --- 0 AODV 48 [0 ffffffff 6 800] ------- [6:255 -1:255 28 0] [0x2 3 1 [9 0] [8 4]] (REQUEST)
s 0.009094458 _9_ RTR  --- 0 AODV 44 [0 0 0 0] ------- [9:255 8:255 30 6] [0x4 1 [9 4] 10.000000] (REPLY)
r 0.009094469 _3_ RTR  --- 0 AODV 48 [0 ffffffff 6 800] ------- [6:255 -1:255 28 0] [0x2 3 1 [9 0] [8 4]] (REQUEST)
r 0.009094559 _7_ RTR  --- 0 AODV 48 [0 ffffffff 6 800] ------- [6:255 -1:255 28 0] [0x2 3 1 [9 0] [8 4]] (REQUEST)
r 0.009094742 _1_ RTR  --- 0 AODV 48 [0 ffffffff 6 800] ------- [6:255 -1:255 28 0] [0x2 3 1 [9 0] [8 4]] (REQUEST)
r 0.009094759 _4_ RTR  --- 0 AODV 48 [0 ffffffff 6 800] ------- [6:255 -1:255 28 0] [0x2 3 1 [9 0] [8 4]] (REQUEST)
r 0.009094851 _2_ RTR  --- 0 AODV 48 [0 ffffffff 6 800] ------- [6:255 -1:255 28 0] [0x2 3 1 [9 0] [8 4]] (REQUEST)
s 0.009239759 _4_ MAC  --- 0 AODV 106 [0 ffffffff 4 800] ------- [4:255 -1:255 28 0] [0x2 3 1 [9 0] [8 4]] (REQUEST)
s 0.009366975 _7_ RTR  --- 0 AODV 48 [0 ffffffff 2 800] ------- [7:255 -1:255 28 0] [0x2 3 1 [9 0] [8 4]] (REQUEST)
r 0.010088156 _5_ MAC  --- 0 AODV 48 [0 ffffffff 4 800] ------- [4:255 -1:255 28 0] [0x2 3 1 [9 0] [8 4]] (REQUEST)
r 0.010088201 _1_ MAC  --- 0 AODV 48 [0 ffffffff 4 800] ------- [4:255 -1:255 28 0] [0x2 3 1 [9 0] [8 4]] (REQUEST)
r 0.010088393 _3_ MAC  --- 0 AODV 48 [0 ffffffff 4 800] ------- [4:255 -1:255 28 0] [0x2 3 1 [9 0] [8 4]] (REQUEST)
r 0.010088442 _6_ MAC  --- 0 AODV 48 [0 ffffffff 4 800] ------- [4:255 -1:255 28 0] [0x2 3 1 [9 0] [8 4]] (REQUEST)
r 0.010113156 _5_ RTR  --- 0 AODV 48 [0 ffffffff 4 800] ------- [4:255 -1:255 28 0] [0x2 3 1 [9 0] [8 4]] (REQUEST)
r 0.010113201 _1_ RTR  --- 0 AODV 48 [0 ffffffff 4 800] ------- [4:255 -1:255 28 0] [0x2 3 1 [9 0] [8 4]] (REQUEST)
r 0.010113393 _3_ RTR  --- 0 AODV 48 [0 ffffffff 4 800] ------- [4:255 -1:255 28 0] [0x2 3 1 [9 0] [8 4]] (REQUEST)
r 0.010113442 _6_ RTR  --- 0 AODV 48 [0 ffffffff 4 800] ------- [4:255 -1:255 28 0] [0x2 3 1 [9 0] [8 4]] (REQUEST)
s 0.010358393 _3_ MAC  --- 0 AODV 106 [0 ffffffff 3 800] ------- [3:255 -1:255 29 0] [0x2 2 1 [9 0] [8 4]] (REQUEST)
r 0.011206760 _1_ MAC  --- 0 AODV 48 [0 ffffffff 3 800] ------- [3:255 -1:255 29 0] [0x2 2 1 [9 0] [8 4]] (REQUEST)
r 0.011206787 _6_ MAC  --- 0 AODV 48 [0 ffffffff 3 800] ------- [3:255 -1:255 29 0] [0x2 2 1 [9 0] [8 4]] (REQUEST)
r 0.011206801 _2_ MAC  --- 0 AODV 48 [0 ffffffff 3 800] ------- [3:255 -1:255 29 0] [0x2 2 1 [9 0] [8 4]] (REQUEST)
r 0.011206894 _7_ MAC  --- 0 AODV 48 [0 ffffffff 3 800] ------- [3:255 -1:255 29 0] [0x2 2 1 [9 0] [8 4]] (REQUEST)
r 0.011206934 _5_ MAC  --- 0 AODV 48 [0 ffffffff 3 800] ------- [3:255 -1:255 29 0] [0x2 2 1 [9 0] [8 4]] (REQUEST)
r 0.011207027 _4_ MAC  --- 0 AODV 48 [0 ffffffff 3 800] ------- [3:255 -1:255 29 0] [0x2 2 1 [9 0] [8 4]] (REQUEST)
r 0.011207073 _0_ MAC  --- 0 AODV 48 [0 ffffffff 3 800] ------- [3:255 -1:255 29 0] [0x2 2 1 [9 0] [8 4]] (REQUEST)
r 0.011207084 _8_ MAC  --- 0 AODV 48 [0 ffffffff 3 800] ------- [3:255 -1:255 29 0] [0x2 2 1 [9 0] [8 4]] (REQUEST)
r 0.011207109 _9_ MAC  --- 0 AODV 48 [0 ffffffff 3 800] ------- [3:255 -1:255 29 0] [0x2 2 1 [9 0] [8 4]] (REQUEST)
r 0.011231760 _1_ RTR  --- 0 AODV 48 [0 ffffffff 3 800] ------- [3:255 -1:255 29 0] [0x2 2 1 [9 0] [8 4]] (REQUEST)
r 0.011231787 _6_ RTR  --- 0 AODV 48 [0 ffffffff 3 800] ------- [3:255 -1:255 29 0] [0x2 2 1 [9 0] [8 4]] (REQUEST)
r 0.011231801 _2_ RTR  --- 0 AODV 48 [0 ffffffff 3 800] ------- [3:255 -1:255 29 0] [0x2 2 1 [9 0] [8 4]] (REQUEST)
r 0.011231894 _7_ RTR  --- 0 AODV 48 [0 ffffffff 3 800] ------- [3:255 -1:255 29 0] [0x2 2 1 [9 0] [8 4]] (REQUEST)
r 0.011231934 _5_ RTR  --- 0 AODV 48 [0 ffffffff 3 800] ------- [3:255 -1:255 29 0] [0x2 2 1 [9 0] [8 4]] (REQUEST)
r 0.011232027 _4_ RTR  --- 0 AODV 48 [0 ffffffff 3 800] ------- [3:255 -1:255 29 0] [0x2 2 1 [9 0] [8 4]] (REQUEST)
r 0.011232073 _0_ RTR  --- 0 AODV 48 [0 ffffffff 3 800] ------- [3:255 -1:255 29 0] [0x2 2 1 [9 0] [8 4]] (REQUEST)
r 0.011232084 _8_ RTR  --- 0 AODV 48 [0 ffffffff 3 800] ------- [3:255 -1:255 29 0] [0x2 2 1 [9 0] [8 4]] (REQUEST)
r 0.011232109 _9_ RTR  --- 0 AODV 48 [0 ffffffff 3 800] ------- [3:255 -1:255 29 0] [0x2 2 1 [9 0] [8 4]] (REQUEST)
s 0.011377109 _9_ MAC  --- 0 ARP 86 [0 ffffffff 9 806] ------- [REQUEST 9/9 0/6]
r 0.012065492 _6_ MAC  --- 0 ARP 28 [0 ffffffff 9 806] ------- [REQUEST 9/9 0/6]
r 0.012065587 _7_ MAC  --- 0 ARP 28 [0 ffffffff 9 806] ------- [REQUEST 9/9 0/6]
r 0.012065787 _5_ MAC  --- 0 ARP 28 [0 ffffffff 9 806] ------- [REQUEST 9/9 0/6]
r 0.012065826 _3_ MAC  --- 0 ARP 28 [0 ffffffff 9 806] ------- [REQUEST 9/9 0/6]
s 0.012215587 _7_ MAC  --- 0 AODV 106 [0 ffffffff 7 800] ------- [7:255 -1:255 28 0] [0x2 3 1 [9 0] [8 4]] (REQUEST)
r 0.013064025 _0_ MAC  --- 0 AODV 48 [0 ffffffff 7 800] ------- [7:255 -1:255 28 0] [0x2 3 1 [9 0] [8 4]] (REQUEST)
r 0.013064064 _9_ MAC  --- 0 AODV 48 [0 ffffffff 7 800] ------- [7:255 -1:255 28 0] [0x2 3 1 [9 0] [8 4]] (REQUEST)
r 0.013064070 _6_ MAC  --- 0 AODV 48 [0 ffffffff 7 800] ------- [7:255 -1:255 28 0] [0x2 3 1 [9 0] [8 4]] (REQUEST)
r 0.013064088 _3_ MAC  --- 0 AODV 48 [0 ffffffff 7 800] ------- [7:255 -1:255 28 0] [0x2 3 1 [9 0] [8 4]] (REQUEST)
r 0.013064214 _2_ MAC  --- 0 AODV 48 [0 ffffffff 7 800] ------- [7:255 -1:255 28 0] [0x2 3 1 [9 0] [8 4]] (REQUEST)
r 0.013064414 _5_ MAC  --- 0 AODV 48 [0 ffffffff 7 800] ------- [7:255 -1:255 28 0] [0x2 3 1 [9 0] [8 4]] (REQUEST)
r 0.013089025 _0_ RTR  --- 0 AODV 48 [0 ffffffff 7 800] ------- [7:255 -1:255 28 0] [0x2 3 1 [9 0] [8 4]] (REQUEST)
r 0.013089064 _9_ RTR  --- 0 AODV 48 [0 ffffffff 7 800] ------- [7:255 -1:255 28 0] [0x2 3 1 [9 0] [8 4]] (REQUEST)
r 0.013089070 _6_ RTR  --- 0 AODV 48 [0 ffffffff 7 800] ------- [7:255 -1:255 28 0] [0x2 3 1 [9 0] [8 4]] (REQUEST)
r 0.013089088 _3_ RTR  --- 0 AODV 48 [0 ffffffff 7 800] ------- [7:255 -1:255 28 0] [0x2 3 1 [9 0] [8 4]] (REQUEST)
r 0.013089214 _2_ RTR  --- 0 AODV 48 [0 ffffffff 7 800] ------- [7:255 -1:255 28 0] [0x2 3 1 [9 0] [8 4]] (REQUEST)
r 0.013089414 _5_ RTR  --- 0 AODV 48 [0 ffffffff 7 800] ------- [7:255 -1:255 28 0] [0x2 3 1 [9 0] [8 4]] (REQUEST)
s 0.013214070 _6_ MAC  --- 0 RTS 44 [52e 9 6 0] 
r 0.013566453 _9_ MAC  --- 0 RTS 44 [52e 9 6 0] 
s 0.013576453 _9_ MAC  --- 0 CTS 38 [3f4 6 0 0] 
r 0.013880836 _6_ MAC  --- 0 CTS 38 [3f4 6 0 0] 
s 0.013890836 _6_ MAC  --- 0 ARP 86 [13a 9 6 806] ------- [REPLY 6/6 9/9]
r 0.014579220 _9_ MAC  --- 0 ARP 28 [13a 9 6 806] ------- [REPLY 6/6 9/9]
s 0.014589220 _9_ MAC  --- 0 ACK 38 [0 6 0 0] 
r 0.014893603 _6_ MAC  --- 0 ACK 38 [0 6 0 0] 
s 0.014986124 _5_ RTR  --- 0 AODV 48 [0 ffffffff 1 800] ------- [5:255 -1:255 28 0] [0x2 3 1 [9 0] [8 4]] (REQUEST)
s 0.015183220 _9_ MAC  --- 0 RTS 44 [5ae 6 9 0] 
r 0.015535603 _6_ MAC  --- 0 RTS 44 [5ae 6 9 0] 
s 0.015545603 _6_ MAC  --- 0 CTS 38 [474 9 0 0] 
r 0.015849986 _9_ MAC  --- 0 CTS 38 [474 9 0 0] 
s 0.015859986 _9_ MAC  --- 0 AODV 102 [13a 6 9 800] ------- [9:255 8:255 30 6] [0x4 1 [9 4] 10.000000] (REPLY)
r 0.016676369 _6_ MAC  --- 0 AODV 44 [13a 6 9 800] ------- [9:255 8:255 30 6] [0x4 1 [9 4] 10.000000] (REPLY)
s 0.016686369 _6_ MAC  --- 0 ACK 38 [0 9 0 0] 
r 0.016701369 _6_ RTR  --- 0 AODV 44 [13a 6 9 800] ------- [9:255 8:255 30 6] [0x4 1 [9 4] 10.000000] (REPLY)
f 0.016701369 _6_ RTR  --- 0 AODV 44 [13a 6 9 800] ------- [9:255 8:255 29 2] [0x4 2 [9 4] 10.000000] (REPLY)
r 0.016990752 _9_ MAC  --- 0 ACK 38 [0 9 0 0] 
s 0.017200369 _6_ MAC  --- 0 ARP 86 [0 ffffffff 6 806] ------- [REQUEST 6/6 0/2]
r 0.017888724 _5_ MAC  --- 0 ARP 28 [0 ffffffff 6 806] ------- [REQUEST 6/6 0/2]
r 0.017888752 _9_ MAC  --- 0 ARP 28 [0 ffffffff 6 806] ------- [REQUEST 6/6 0/2]
r 0.017888763 _3_ MAC  --- 0 ARP 28 [0 ffffffff 6 806] ------- [REQUEST 6/6 0/2]
r 0.017888852 _7_ MAC  --- 0 ARP 28 [0 ffffffff 6 806] ------- [REQUEST 6/6 0/2]
r 0.017889036 _1_ MAC  --- 0 ARP 28 [0 ffffffff 6 806] ------- [REQUEST 6/6 0/2]
r 0.017889052 _4_ MAC  --- 0 ARP 28 [0 ffffffff 6 806] ------- [REQUEST 6/6 0/2]
r 0.017889145 _2_ MAC  --- 0 ARP 28 [0 ffffffff 6 806] ------- [REQUEST 6/6 0/2]
s 0.018218724 _5_ MAC  --- 0 AODV 106 [0 ffffffff 5 800] ------- [5:255 -1:255 28 0] [0x2 3 1 [9 0] [8 4]] (REQUEST)
r 0.019067080 _6_ MAC  --- 0 AODV 48 [0 ffffffff 5 800] ------- [5:255 -1:255 28 0] [0x2 3 1 [9 0] [8 4]] (REQUEST)
r 0.019067122 _4_ MAC  --- 0 AODV 48 [0 ffffffff 5 800] ------- [5:255 -1:255 28 0] [0x2 3 1 [9 0] [8 4]] (REQUEST)
r 0.019067265 _3_ MAC  --- 0 AODV 48 [0 ffffffff 5 800] ------- [5:255 -1:255 28 0] [0x2 3 1 [9 0] [8 4]] (REQUEST)
r 0.019067330 _1_ MAC  --- 0 AODV 48 [0 ffffffff 5 800] ------- [5:255 -1:255 28 0] [0x2 3 1 [9 0] [8 4]] (REQUEST)
r 0.019067402 _9_ MAC  --- 0 AODV 48 [0 ffffffff 5 800] ------- [5:255 -1:255 28 0] [0x2 3 1 [9 0] [8 4]] (REQUEST)
r 0.019067552 _7_ MAC  --- 0 AODV 48 [0 ffffffff 5 800] ------- [5:255 -1:255 28 0] [0x2 3 1 [9 0] [8 4]] (REQUEST)
r 0.019092080 _6_ RTR  --- 0 AODV 48 [0 ffffffff 5 800] ------- [5:255 -1:255 28 0] [0x2 3 1 [9 0] [8 4]] (REQUEST)
r 0.019092122 _4_ RTR  --- 0 AODV 48 [0 ffffffff 5 800] ------- [5:255 -1:255 28 0] [0x2 3 1 [9 0] [8 4]] (REQUEST)
r 0.019092265 _3_ RTR  --- 0 AODV 48 [0 ffffffff 5 800] ------- [5:255 -1:255 28 0] [0x2 3 1 [9 0] [8 4]] (REQUEST)
r 0.019092330 _1_ RTR  --- 0 AODV 48 [0 ffffffff 5 800] ------- [5:255 -1:255 28 0] [0x2 3 1 [9 0] [8 4]] (REQUEST)
r 0.019092402 _9_ RTR  --- 0 AODV 48 [0 ffffffff 5 800] ------- [5:255 -1:255 28 0] [0x2 3 1 [9 0] [8 4]] (REQUEST)
r 0.019092552 _7_ RTR  --- 0 AODV 48 [0 ffffffff 5 800] ------- [5:255 -1:255 28 0] [0x2 3 1 [9 0] [8 4]] (REQUEST)
s 0.019521668 _2_ MAC  --- 0 RTS 44 [52e 6 2 0] 
r 0.019874444 _6_ MAC  --- 0 RTS 44 [52e 6 2 0] 
s 0.019884444 _6_ MAC  --- 0 CTS 38 [3f4 2 0 0] 
r 0.020189220 _2_ MAC  --- 0 CTS 38 [3f4 2 0 0] 
s 0.020199220 _2_ MAC  --- 0 ARP 86 [13a 6 2 806] ------- [REPLY 2/2 6/6]
r 0.020887996 _6_ MAC  --- 0 ARP 28 [13a 6 2 806] ------- [REPLY 2/2 6/6]
s 0.020897996 _6_ MAC  --- 0 ACK 38 [0 2 0 0] 
r 0.021202772 _2_ MAC  --- 0 ACK 38 [0 2 0 0] 
s 0.021391996 _6_ MAC  --- 0 RTS 44 [5ae 2 6 0] 
r 0.021744772 _2_ MAC  --- 0 RTS 44 [5ae 2 6 0] 
s 0.021754772 _2_ MAC  --- 0 CTS 38 [474 6 0 0] 
r 0.022059547 _6_ MAC  --- 0 CTS 38 [474 6 0 0] 
s 0.022069547 _6_ MAC  --- 0 AODV 102 [13a 2 6 800] ------- [9:255 8:255 29 2] [0x4 2 [9 4] 10.000000] (REPLY)
r 0.022886323 _2_ MAC  --- 0 AODV 44 [13a 2 6 800] ------- [9:255 8:255 29 2] [0x4 2 [9 4] 10.000000] (REPLY)
s 0.022896323 _2_ MAC  --- 0 ACK 38 [0 6 0 0] 
r 0.022911323 _2_ RTR  --- 0 AODV 44 [13a 2 6 800] ------- [9:255 8:255 29 2] [0x4 2 [9 4] 10.000000] (REPLY)
f 0.022911323 _2_ RTR  --- 0 AODV 44 [13a 2 6 800] ------- [9:255 8:255 28 8] [0x4 3 [9 4] 10.000000] (REPLY)
r 0.023201099 _6_ MAC  --- 0 ACK 38 [0 6 0 0] 
s 0.023530323 _2_ MAC  --- 0 ARP 86 [0 ffffffff 2 806] ------- [REQUEST 2/2 0/8]
r 0.024218731 _3_ MAC  --- 0 ARP 28 [0 ffffffff 2 806] ------- [REQUEST 2/2 0/8]
r 0.024218792 _8_ MAC  --- 0 ARP 28 [0 ffffffff 2 806] ------- [REQUEST 2/2 0/8]
r 0.024218820 _0_ MAC  --- 0 ARP 28 [0 ffffffff 2 806] ------- [REQUEST 2/2 0/8]
r 0.024218857 _1_ MAC  --- 0 ARP 28 [0 ffffffff 2 806] ------- [REQUEST 2/2 0/8]
r 0.024218951 _7_ MAC  --- 0 ARP 28 [0 ffffffff 2 806] ------- [REQUEST 2/2 0/8]
r 0.024219099 _6_ MAC  --- 0 ARP 28 [0 ffffffff 2 806] ------- [REQUEST 2/2 0/8]
s 0.024793792 _8_ MAC  --- 0 RTS 44 [52e 2 8 0] 
r 0.025146261 _2_ MAC  --- 0 RTS 44 [52e 2 8 0] 
s 0.025156261 _2_ MAC  --- 0 CTS 38 [3f4 8 0 0] 
r 0.025460731 _8_ MAC  --- 0 CTS 38 [3f4 8 0 0] 
s 0.025470731 _8_ MAC  --- 0 ARP 86 [13a 2 8 806] ------- [REPLY 8/8 2/2]
r 0.026159200 _2_ MAC  --- 0 ARP 28 [13a 2 8 806] ------- [REPLY 8/8 2/2]
s 0.026169200 _2_ MAC  --- 0 ACK 38 [0 8 0 0] 
r 0.026473669 _8_ MAC  --- 0 ACK 38 [0 8 0 0] 
s 0.026743200 _2_ MAC  --- 0 RTS 44 [5ae 8 2 0] 
r 0.027095669 _8_ MAC  --- 0 RTS 44 [5ae 8 2 0] 
s 0.027105669 _8_ MAC  --- 0 CTS 38 [474 2 0 0] 
r 0.027410138 _2_ MAC  --- 0 CTS 38 [474 2 0 0] 
s 0.027420138 _2_ MAC  --- 0 AODV 102 [13a 8 2 800] ------- [9:255 8:255 28 8] [0x4 3 [9 4] 10.000000] (REPLY)
r 0.028236607 _8_ MAC  --- 0 AODV 44 [13a 8 2 800] ------- [9:255 8:255 28 8] [0x4 3 [9 4] 10.000000] (REPLY)
s 0.028246607 _8_ MAC  --- 0 ACK 38 [0 2 0 0] 
r 0.028261607 _8_ RTR  --- 0 AODV 44 [13a 8 2 800] ------- [9:255 8:255 28 8] [0x4 3 [9 4] 10.000000] (REPLY)
s 0.028261607 _8_ RTR  --- 0 tcp 40 [0 0 0 0] ------- [8:0 9:0 30 2] [0 0] 0 0
r 0.028551076 _2_ MAC  --- 0 ACK 38 [0 2 0 0] 
s 0.029180607 _8_ MAC  --- 0 RTS 44 [58e 2 8 0] 
r 0.029533076 _2_ MAC  --- 0 RTS 44 [58e 2 8 0] 
s 0.029543076 _2_ MAC  --- 0 CTS 38 [454 8 0 0] 
r 0.029847545 _8_ MAC  --- 0 CTS 38 [454 8 0 0] 
s 0.029857545 _8_ MAC  --- 0 tcp 98 [13a 2 8 800] ------- [8:0 9:0 30 2] [0 0] 0 0
r 0.030642014 _2_ MAC  --- 0 tcp 40 [13a 2 8 800] ------- [8:0 9:0 30 2] [0 0] 1 0
s 0.030652014 _2_ MAC  --- 0 ACK 38 [0 8 0 0] 
r 0.030667014 _2_ RTR  --- 0 tcp 40 [13a 2 8 800] ------- [8:0 9:0 30 2] [0 0] 1 0
f 0.030667014 _2_ RTR  --- 0 tcp 40 [13a 2 8 800] ------- [8:0 9:0 29 6] [0 0] 1 0
r 0.030956483 _8_ MAC  --- 0 ACK 38 [0 8 0 0] 
s 0.031126014 _2_ MAC  --- 0 RTS 44 [58e 6 2 0] 
r 0.031478790 _6_ MAC  --- 0 RTS 44 [58e 6 2 0] 
s 0.031488790 _6_ MAC  --- 0 CTS 38 [454 2 0 0] 
r 0.031793566 _2_ MAC  --- 0 CTS 38 [454 2 0 0] 
s 0.031803566 _2_ MAC  --- 0 tcp 98 [13a 6 2 800] ------- [8:0 9:0 29 6] [0 0] 1 0
r 0.032588342 _6_ MAC  --- 0 tcp 40 [13a 6 2 800] ------- [8:0 9:0 29 6] [0 0] 2 0
s 0.032598342 _6_ MAC  --- 0 ACK 38 [0 2 0 0] 
r 0.032613342 _6_ RTR  --- 0 tcp 40 [13a 6 2 800] ------- [8:0 9:0 29 6] [0 0] 2 0
f 0.032613342 _6_ RTR  --- 0 tcp 40 [13a 6 2 800] ------- [8:0 9:0 28 9] [0 0] 2 0
r 0.032903118 _2_ MAC  --- 0 ACK 38 [0 2 0 0] 
s 0.033452342 _6_ MAC  --- 0 RTS 44 [58e 9 6 0] 
r 0.033804725 _9_ MAC  --- 0 RTS 44 [58e 9 6 0] 
s 0.033814725 _9_ MAC  --- 0 CTS 38 [454 6 0 0] 
r 0.034119108 _6_ MAC  --- 0 CTS 38 [454 6 0 0] 
s 0.034129108 _6_ MAC  --- 0 tcp 98 [13a 9 6 800] ------- [8:0 9:0 28 9] [0 0] 2 0
r 0.034913491 _9_ MAC  --- 0 tcp 40 [13a 9 6 800] ------- [8:0 9:0 28 9] [0 0] 3 0
s 0.034923491 _9_ MAC  --- 0 ACK 38 [0 6 0 0] 
r 0.034938491 _9_ AGT  --- 0 tcp 40 [13a 9 6 800] ------- [8:0 9:0 28 9] [0 0] 3 0
s 0.034938491 _9_ AGT  --- 1 ack 40 [0 0 0 0] ------- [9:0 8:0 32 0] [0 0] 0 0
r 0.034938491 _9_ RTR  --- 1 ack 40 [0 0 0 0] ------- [9:0 8:0 32 0] [0 0] 0 0
s 0.034938491 _9_ RTR  --- 1 ack 40 [0 0 0 0] ------- [9:0 8:0 30 6] [0 0] 0 0
r 0.035227874 _6_ MAC  --- 0 ACK 38 [0 6 0 0] 
s 0.035457491 _9_ MAC  --- 0 RTS 44 [58e 6 9 0] 
r 0.035809874 _6_ MAC  --- 0 RTS 44 [58e 6 9 0] 
s 0.035819874 _6_ MAC  --- 0 CTS 38 [454 9 0 0] 
r 0.036124257 _9_ MAC  --- 0 CTS 38 [454 9 0 0] 
s 0.036134257 _9_ MAC  --- 1 ack 98 [13a 6 9 800] ------- [9:0 8:0 30 6] [0 0] 0 0
r 0.036918641 _6_ MAC  --- 1 ack 40 [13a 6 9 800] ------- [9:0 8:0 30 6] [0 0] 1 0
s 0.036928641 _6_ MAC  --- 0 ACK 38 [0 9 0 0] 
r 0.036943641 _6_ RTR  --- 1 ack 40 [13a 6 9 800] ------- [9:0 8:0 30 6] [0 0] 1 0
f 0.036943641 _6_ RTR  --- 1 ack 40 [13a 6 9 800] ------- [9:0 8:0 29 2] [0 0] 1 0
r 0.037233024 _9_ MAC  --- 0 ACK 38 [0 9 0 0] 
s 0.037402641 _6_ MAC  --- 0 RTS 44 [58e 2 6 0] 
r 0.037755416 _2_ MAC  --- 0 RTS 44 [58e 2 6 0] 
s 0.037765416 _2_ MAC  --- 0 CTS 38 [454 6 0 0] 
r 0.038070192 _6_ MAC  --- 0 CTS 38 [454 6 0 0] 
s 0.038080192 _6_ MAC  --- 1 ack 98 [13a 2 6 800] ------- [9:0 8:0 29 2] [0 0] 1 0
r 0.038864968 _2_ MAC  --- 1 ack 40 [13a 2 6 800] ------- [9:0 8:0 29 2] [0 0] 2 0
s 0.038874968 _2_ MAC  --- 0 ACK 38 [0 6 0 0] 
r 0.038889968 _2_ RTR  --- 1 ack 40 [13a 2 6 800] ------- [9:0 8:0 29 2] [0 0] 2 0
f 0.038889968 _2_ RTR  --- 1 ack 40 [13a 2 6 800] ------- [9:0 8:0 28 8] [0 0] 2 0
r 0.039179744 _6_ MAC  --- 0 ACK 38 [0 6 0 0] 
s 0.039228968 _2_ MAC  --- 0 RTS 44 [58e 8 2 0] 
r 0.039581437 _8_ MAC  --- 0 RTS 44 [58e 8 2 0] 
s 0.039591437 _8_ MAC  --- 0 CTS 38 [454 2 0 0] 
r 0.039895906 _2_ MAC  --- 0 CTS 38 [454 2 0 0] 
s 0.039905906 _2_ MAC  --- 1 ack 98 [13a 8 2 800] ------- [9:0 8:0 28 8] [0 0] 2 0
r 0.040690375 _8_ MAC  --- 1 ack 40 [13a 8 2 800] ------- [9:0 8:0 28 8] [0 0] 3 0
s 0.040700375 _8_ MAC  --- 0 ACK 38 [0 2 0 0] 
r 0.040715375 _8_ AGT  --- 1 ack 40 [13a 8 2 800] ------- [9:0 8:0 28 8] [0 0] 3 0
s 0.040715375 _8_ AGT  --- 2 tcp 1040 [0 0 0 0] ------- [8:0 9:0 32 0] [1 0] 0 0
r 0.040715375 _8_ RTR  --- 2 tcp 1040 [0 0 0 0] ------- [8:0 9:0 32 0] [1 0] 0 0
s 0.040715375 _8_ AGT  --- 3 tcp 1040 [0 0 0 0] ------- [8:0 9:0 32 0] [2 0] 0 0
r 0.040715375 _8_ RTR  --- 3 tcp 1040 [0 0 0 0] ------- [8:0 9:0 32 0] [2 0] 0 0
s 0.040715375 _8_ RTR  --- 2 tcp 1040 [0 0 0 0] ------- [8:0 9:0 30 2] [1 0] 0 0
s 0.040715375 _8_ RTR  --- 3 tcp 1040 [0 0 0 0] ------- [8:0 9:0 30 2] [2 0] 0 0
r 0.041004845 _2_ MAC  --- 0 ACK 38 [0 2 0 0] 
s 0.041174375 _8_ MAC  --- 0 RTS 44 [24ce 2 8 0] 
r 0.041526845 _2_ MAC  --- 0 RTS 44 [24ce 2 8 0] 
s 0.041536845 _2_ MAC  --- 0 CTS 38 [2394 8 0 0] 
r 0.041841314 _8_ MAC  --- 0 CTS 38 [2394 8 0 0] 
s 0.041851314 _8_ MAC  --- 2 tcp 1098 [13a 2 8 800] ------- [8:0 9:0 30 2] [1 0] 0 0
r 0.050635783 _2_ MAC  --- 2 tcp 1040 [13a 2 8 800] ------- [8:0 9:0 30 2] [1 0] 1 0
s 0.050645783 _2_ MAC  --- 0 ACK 38 [0 8 0 0] 
r 0.050660783 _2_ RTR  --- 2 tcp 1040 [13a 2 8 800] ------- [8:0 9:0 30 2] [1 0] 1 0
f 0.050660783 _2_ RTR  --- 2 tcp 1040 [13a 2 8 800] ------- [8:0 9:0 29 6] [1 0] 1 0
r 0.050950252 _8_ MAC  --- 0 ACK 38 [0 8 0 0] 
s 0.051160252 _8_ MAC  --- 0 RTS 44 [24ce 2 8 0] 
r 0.051512721 _2_ MAC  --- 0 RTS 44 [24ce 2 8 0] 
s 0.051522721 _2_ MAC  --- 0 CTS 38 [2394 8 0 0] 
r 0.051827190 _8_ MAC  --- 0 CTS 38 [2394 8 0 0] 
s 0.051837190 _8_ MAC  --- 3 tcp 1098 [13a 2 8 800] ------- [8:0 9:0 30 2] [2 0] 0 0
r 0.060621659 _2_ MAC  --- 3 tcp 1040 [13a 2 8 800] ------- [8:0 9:0 30 2] [2 0] 1 0
s 0.060631659 _2_ MAC  --- 0 ACK 38 [0 8 0 0] 
r 0.060646659 _2_ RTR  --- 3 tcp 1040 [13a 2 8 800] ------- [8:0 9:0 30 2] [2 0] 1 0
f 0.060646659 _2_ RTR  --- 3 tcp 1040 [13a 2 8 800] ------- [8:0 9:0 29 6] [2 0] 1 0
r 0.060936128 _8_ MAC  --- 0 ACK 38 [0 8 0 0] 
s 0.061045659 _2_ MAC  --- 0 RTS 44 [24ce 6 2 0] 
r 0.061398435 _6_ MAC  --- 0 RTS 44 [24ce 6 2 0] 
s 0.061408435 _6_ MAC  --- 0 CTS 38 [2394 2 0 0] 
r 0.061713211 _2_ MAC  --- 0 CTS 38 [2394 2 0 0] 
s 0.061723211 _2_ MAC  --- 2 tcp 1098 [13a 6 2 800] ------- [8:0 9:0 29 6] [1 0] 1 0
r 0.070507987 _6_ MAC  --- 2 tcp 1040 [13a 6 2 800] ------- [8:0 9:0 29 6] [1 0] 2 0
s 0.070517987 _6_ MAC  --- 0 ACK 38 [0 2 0 0] 
r 0.070532987 _6_ RTR  --- 2 tcp 1040 [13a 6 2 800] ------- [8:0 9:0 29 6] [1 0] 2 0
f 0.070532987 _6_ RTR  --- 2 tcp 1040 [13a 6 2 800] ------- [8:0 9:0 28 9] [1 0] 2 0
r 0.070822763 _2_ MAC  --- 0 ACK 38 [0 2 0 0] 
s 0.070952763 _2_ MAC  --- 0 RTS 44 [24ce 6 2 0] 
r 0.071305538 _6_ MAC  --- 0 RTS 44 [24ce 6 2 0] 
s 0.071315538 _6_ MAC  --- 0 CTS 38 [2394 2 0 0] 
r 0.071620314 _2_ MAC  --- 0 CTS 38 [2394 2 0 0] 
s 0.071630314 _2_ MAC  --- 3 tcp 1098 [13a 6 2 800] ------- [8:0 9:0 29 6] [2 0] 1 0
r 0.080415090 _6_ MAC  --- 3 tcp 1040 [13a 6 2 800] ------- [8:0 9:0 29 6] [2 0] 2 0
s 0.080425090 _6_ MAC  --- 0 ACK 38 [0 2 0 0] 
r 0.080440090 _6_ RTR  --- 3 tcp 1040 [13a 6 2 800] ------- [8:0 9:0 29 6] [2 0] 2 0
f 0.080440090 _6_ RTR  --- 3 tcp 1040 [13a 6 2 800] ------- [8:0 9:0 28 9] [2 0] 2 0
r 0.080729866 _2_ MAC  --- 0 ACK 38 [0 2 0 0] 
s 0.080819090 _6_ MAC  --- 0 RTS 44 [24ce 9 6 0] 
r 0.081171473 _9_ MAC  --- 0 RTS 44 [24ce 9 6 0] 
s 0.081181473 _9_ MAC  --- 0 CTS 38 [2394 6 0 0] 
r 0.081485856 _6_ MAC  --- 0 CTS 38 [2394 6 0 0] 
s 0.081495856 _6_ MAC  --- 2 tcp 1098 [13a 9 6 800] ------- [8:0 9:0 28 9] [1 0] 2 0
r 0.090280240 _9_ MAC  --- 2 tcp 1040 [13a 9 6 800] ------- [8:0 9:0 28 9] [1 0] 3 0
s 0.090290240 _9_ MAC  --- 0 ACK 38 [0 6 0 0] 
r 0.090305240 _9_ AGT  --- 2 tcp 1040 [13a 9 6 800] ------- [8:0 9:0 28 9] [1 0] 3 0
s 0.090305240 _9_ AGT  --- 4 ack 40 [0 0 0 0] ------- [9:0 8:0 32 0] [1 0] 0 0
r 0.090305240 _9_ RTR  --- 4 ack 40 [0 0 0 0] ------- [9:0 8:0 32 0] [1 0] 0 0
s 0.090305240 _9_ RTR  --- 4 ack 40 [0 0 0 0] ------- [9:0 8:0 30 6] [1 0] 0 0
r 0.090594623 _6_ MAC  --- 0 ACK 38 [0 6 0 0] 
s 0.090644623 _6_ MAC  --- 0 RTS 44 [24ce 9 6 0] 
r 0.090997006 _9_ MAC  --- 0 RTS 44 [24ce 9 6 0] 
s 0.091007006 _9_ MAC  --- 0 CTS 38 [2394 6 0 0] 
r 0.091311389 _6_ MAC  --- 0 CTS 38 [2394 6 0 0] 
s 0.091321389 _6_ MAC  --- 3 tcp 1098 [13a 9 6 800] ------- [8:0 9:0 28 9] [2 0] 2 0
r 0.100105772 _9_ MAC  --- 3 tcp 1040 [13a 9 6 800] ------- [8:0 9:0 28 9] [2 0] 3 0
s 0.100115772 _9_ MAC  --- 0 ACK 38 [0 6 0 0] 
r 0.100130772 _9_ AGT  --- 3 tcp 1040 [13a 9 6 800] ------- [8:0 9:0 28 9] [2 0] 3 0
s 0.100130772 _9_ AGT  --- 5 ack 40 [0 0 0 0] ------- [9:0 8:0 32 0] [2 0] 0 0
r 0.100130772 _9_ RTR  --- 5 ack 40 [0 0 0 0] ------- [9:0 8:0 32 0] [2 0] 0 0
s 0.100130772 _9_ RTR  --- 5 ack 40 [0 0 0 0] ------- [9:0 8:0 30 6] [2 0] 0 0
r 0.100420155 _6_ MAC  --- 0 ACK 38 [0 6 0 0] 
s 0.100809772 _9_ MAC  --- 0 RTS 44 [58e 6 9 0] 
r 0.101162155 _6_ MAC  --- 0 RTS 44 [58e 6 9 0] 
s 0.101172155 _6_ MAC  --- 0 CTS 38 [454 9 0 0] 
r 0.101476538 _9_ MAC  --- 0 CTS 38 [454 9 0 0] 
s 0.101486538 _9_ MAC  --- 4 ack 98 [13a 6 9 800] ------- [9:0 8:0 30 6] [1 0] 0 0
r 0.102270921 _6_ MAC  --- 4 ack 40 [13a 6 9 800] ------- [9:0 8:0 30 6] [1 0] 1 0
s 0.102280921 _6_ MAC  --- 0 ACK 38 [0 9 0 0] 
r 0.102295921 _6_ RTR  --- 4 ack 40 [13a 6 9 800] ------- [9:0 8:0 30 6] [1 0] 1 0
f 0.102295921 _6_ RTR  --- 4 ack 40 [13a 6 9 800] ------- [9:0 8:0 29 2] [1 0] 1 0
r 0.102585304 _9_ MAC  --- 0 ACK 38 [0 9 0 0] 
s 0.102915304 _9_ MAC  --- 0 RTS 44 [58e 6 9 0] 
r 0.103267688 _6_ MAC  --- 0 RTS 44 [58e 6 9 0] 
s 0.103277688 _6_ MAC  --- 0 CTS 38 [454 9 0 0] 
r 0.103582071 _9_ MAC  --- 0 CTS 38 [454 9 0 0] 
s 0.103592071 _9_ MAC  --- 5 ack 98 [13a 6 9 800] ------- [9:0 8:0 30 6] [2 0] 0 0
r 0.104376454 _6_ MAC  --- 5 ack 40 [13a 6 9 800] ------- [9:0 8:0 30 6] [2 0] 1 0
s 0.104386454 _6_ MAC  --- 0 ACK 38 [0 9 0 0] 
r 0.104401454 _6_ RTR  --- 5 ack 40 [13a 6 9 800] ------- [9:0 8:0 30 6] [2 0] 1 0
f 0.104401454 _6_ RTR  --- 5 ack 40 [13a 6 9 800] ------- [9:0 8:0 29 2] [2 0] 1 0
r 0.104690837 _9_ MAC  --- 0 ACK 38 [0 9 0 0] 
s 0.104760454 _6_ MAC  --- 0 RTS 44 [58e 2 6 0] 
r 0.105113230 _2_ MAC  --- 0 RTS 44 [58e 2 6 0] 
s 0.105123230 _2_ MAC  --- 0 CTS 38 [454 6 0 0] 
r 0.105428005 _6_ MAC  --- 0 CTS 38 [454 6 0 0] 
s 0.105438005 _6_ MAC  --- 4 ack 98 [13a 2 6 800] ------- [9:0 8:0 29 2] [1 0] 1 0
r 0.106222781 _2_ MAC  --- 4 ack 40 [13a 2 6 800] ------- [9:0 8:0 29 2] [1 0] 2 0
s 0.106232781 _2_ MAC  --- 0 ACK 38 [0 6 0 0] 
r 0.106247781 _2_ RTR  --- 4 ack 40 [13a 2 6 800] ------- [9:0 8:0 29 2] [1 0] 2 0
f 0.106247781 _2_ RTR  --- 4 ack 40 [13a 2 6 800] ------- [9:0 8:0 28 8] [1 0] 2 0
r 0.106537557 _6_ MAC  --- 0 ACK 38 [0 6 0 0] 
s 0.106626781 _2_ MAC  --- 0 RTS 44 [58e 8 2 0] 
r 0.106979250 _8_ MAC  --- 0 RTS 44 [58e 8 2 0] 
s 0.106989250 _8_ MAC  --- 0 CTS 38 [454 2 0 0] 
r 0.107293720 _2_ MAC  --- 0 CTS 38 [454 2 0 0] 
s 0.107303720 _2_ MAC  --- 4 ack 98 [13a 8 2 800] ------- [9:0 8:0 28 8] [1 0] 2 0
r 0.108088189 _8_ MAC  --- 4 ack 40 [13a 8 2 800] ------- [9:0 8:0 28 8] [1 0] 3 0
s 0.108098189 _8_ MAC  --- 0 ACK 38 [0 2 0 0] 
r 0.108113189 _8_ AGT  --- 4 ack 40 [13a 8 2 800] ------- [9:0 8:0 28 8] [1 0] 3 0
s 0.108113189 _8_ AGT  --- 6 tcp 1040 [0 0 0 0] ------- [8:0 9:0 32 0] [3 0] 0 0
r 0.108113189 _8_ RTR  --- 6 tcp 1040 [0 0 0 0] ------- [8:0 9:0 32 0] [3 0] 0 0