s 0.000000000 _12_ AGT  --- 0 tcp 40 [0 0 0 0] ------- [12:0 19:0 32 0] [0 0] 0 0
r 0.000000000 _12_ RTR  --- 0 tcp 40 [0 0 0 0] ------- [12:0 19:0 32 0] [0 0] 0 0
s 0.000000000 _12_ RTR  --- 0 AODV 48 [0 0 0 0] ------- [12:255 -1:255 30 0] [0x2 1 1 [19 0] [12 4]] (REQUEST)
s 0.000115000 _12_ MAC  --- 0 AODV 106 [0 ffffffff c 800] ------- [12:255 -1:255 30 0] [0x2 1 1 [19 0] [12 4]] (REQUEST)
r 0.000963263 _4_ MAC  --- 0 AODV 48 [0 ffffffff c 800] ------- [12:255 -1:255 30 0] [0x2 1 1 [19 0] [12 4]] (REQUEST)
r 0.000963280 _21_ MAC  --- 0 AODV 48 [0 ffffffff c 800] ------- [12:255 -1:255 30 0] [0x2 1 1 [19 0] [12 4]] (REQUEST)
r 0.000963306 _1_ MAC  --- 0 AODV 48 [0 ffffffff c 800] ------- [12:255 -1:255 30 0] [0x2 1 1 [19 0] [12 4]] (REQUEST)
r 0.000963312 _39_ MAC  --- 0 AODV 48 [0 ffffffff c 800] ------- [12:255 -1:255 30 0] [0x2 1 1 [19 0] [12 4]] (REQUEST)
r 0.000963360 _13_ MAC  --- 0 AODV 48 [0 ffffffff c 800] ------- [12:255 -1:255 30 0] [0x2 1 1 [19 0] [12 4]] (REQUEST)
r 0.000963373 _0_ MAC  --- 0 AODV 48 [0 ffffffff c 800] ------- [12:255 -1:255 30 0] [0x2 1 1 [19 0] [12 4]] (REQUEST)
r 0.000963416 _49_ MAC  --- 0 AODV 48 [0 ffffffff c 800] ------- [12:255 -1:255 30 0] [0x2 1 1 [19 0] [12 4]] (REQUEST)
r 0.000963462 _25_ MAC  --- 0 AODV 48 [0 ffffffff c 800] ------- [12:255 -1:255 30 0] [0x2 1 1 [19 0] [12 4]] (REQUEST)
r 0.000963530 _36_ MAC  --- 0 AODV 48 [0 ffffffff c 800] ------- [12:255 -1:255 30 0] [0x2 1 1 [19 0] [12 4]] (REQUEST)
r 0.000963538 _20_ MAC  --- 0 AODV 48 [0 ffffffff c 800] ------- [12:255 -1:255 30 0] [0x2 1 1 [19 0] [12 4]] (REQUEST)
r 0.000963576 _11_ MAC  --- 0 AODV 48 [0 ffffffff c 800] ------- [12:255 -1:255 30 0] [0x2 1 1 [19 0] [12 4]] (REQUEST)
r 0.000963601 _31_ MAC  --- 0 AODV 48 [0 ffffffff c 800] ------- [12:255 -1:255 30 0] [0x2 1 1 [19 0] [12 4]] (REQUEST)
r 0.000963727 _17_ MAC  --- 0 AODV 48 [0 ffffffff c 800] ------- [12:255 -1:255 30 0] [0x2 1 1 [19 0] [12 4]] (REQUEST)
r 0.000963730 _27_ MAC  --- 0 AODV 48 [0 ffffffff c 800] ------- [12:255 -1:255 30 0] [0x2 1 1 [19 0] [12 4]] (REQUEST)
r 0.000963735 _14_ MAC  --- 0 AODV 48 [0 ffffffff c 800] ------- [12:255 -1:255 30 0] [0x2 1 1 [19 0] [12 4]] (REQUEST)
r 0.000963769 _44_ MAC  --- 0 AODV 48 [0 ffffffff c 800] ------- [12:255 -1:255 30 0] [0x2 1 1 [19 0] [12 4]] (REQUEST)
r 0.000963777 _46_ MAC  --- 0 AODV 48 [0 ffffffff c 800] ------- [12:255 -1:255 30 0] [0x2 1 1 [19 0] [12 4]] (REQUEST)
r 0.000963813 _3_ MAC  --- 0 AODV 48 [0 ffffffff c 800] ------- [12:255 -1:255 30 0] [0x2 1 1 [19 0] [12 4]] (REQUEST)
r 0.000988263 _4_ RTR  --- 0 AODV 48 [0 ffffffff c 800] ------- [12:255 -1:255 30 0] [0x2 1 1 [19 0] [12 4]] (REQUEST)
r 0.000988280 _21_ RTR  --- 0 AODV 48 [0 ffffffff c 800] ------- [12:255 -1:255 30 0] [0x2 1 1 [19 0] [12 4]] (REQUEST)
r 0.000988306 _1_ RTR  --- 0 AODV 48 [0 ffffffff c 800] ------- [12:255 -1:255 30 0] [0x2 1 1 [19 0] [12 4]] (REQUEST)
r 0.000988312 _39_ RTR  --- 0 AODV 48 [0 ffffffff c 800] ------- [12:255 -1:255 30 0] [0x2 1 1 [19 0] [12 4]] (REQUEST)
r 0.000988360 _13_ RTR  --- 0 AODV 48 [0 ffffffff c 800] ------- [12:255 -1:255 30 0] [0x2 1 1 [19 0] [12 4]] (REQUEST)
r 0.000988373 _0_ RTR  --- 0 AODV 48 [0 ffffffff c 800] ------- [12:255 -1:255 30 0] [0x2 1 1 [19 0] [12 4]] (REQUEST)
r 0.000988416 _49_ RTR  --- 0 AODV 48 [0 ffffffff c 800] ------- [12:255 -1:255 30 0] [0x2 1 1 [19 0] [12 4]] (REQUEST)
r 0.000988462 _25_ RTR  --- 0 AODV 48 [0 ffffffff c 800] ------- [12:255 -1:255 30 0] [0x2 1 1 [19 0] [12 4]] (REQUEST)
r 0.000988530 _36_ RTR  --- 0 AODV 48 [0 ffffffff c 800] ------- [12:255 -1:255 30 0] [0x2 1 1 [19 0] [12 4]] (REQUEST)
r 0.000988538 _20_ RTR  --- 0 AODV 48 [0 ffffffff c 800] ------- [12:255 -1:255 30 0] [0x2 1 1 [19 0] [12 4]] (REQUEST)
r 0.000988576 _11_ RTR  --- 0 AODV 48 [0 ffffffff c 800] ------- [12:255 -1:255 30 0] [0x2 1 1 [19 0] [12 4]] (REQUEST)
r 0.000988601 _31_ RTR  --- 0 AODV 48 [0 ffffffff c 800] ------- [12:255 -1:255 30 0] [0x2 1 1 [19 0] [12 4]] (REQUEST)
r 0.000988727 _17_ RTR  --- 0 AODV 48 [0 ffffffff c 800] ------- [12:255 -1:255 30 0] [0x2 1 1 [19 0] [12 4]] (REQUEST)
r 0.000988730 _27_ RTR  --- 0 AODV 48 [0 ffffffff c 800] ------- [12:255 -1:255 30 0] [0x2 1 1 [19 0] [12 4]] (REQUEST)
r 0.000988735 _14_ RTR  --- 0 AODV 48 [0 ffffffff c 800] ------- [12:255 -1:255 30 0] [0x2 1 1 [19 0] [12 4]] (REQUEST)
r 0.000988769 _44_ RTR  --- 0 AODV 48 [0 ffffffff c 800] ------- [12:255 -1:255 30 0] [0x2 1 1 [19 0] [12 4]] (REQUEST)
r 0.000988777 _46_ RTR  --- 0 AODV 48 [0 ffffffff c 800] ------- [12:255 -1:255 30 0] [0x2 1 1 [19 0] [12 4]] (REQUEST)
r 0.000988813 _3_ RTR  --- 0 AODV 48 [0 ffffffff c 800] ------- [12:255 -1:255 30 0] [0x2 1 1 [19 0] [12 4]] (REQUEST)
s 0.001416521 _11_ RTR  --- 0 AODV 48 [0 ffffffff c 800] ------- [11:255 -1:255 29 0] [0x2 2 1 [19 0] [12 4]] (REQUEST)
s 0.001691521 _11_ MAC  --- 0 AODV 106 [0 ffffffff b 800] ------- [11:255 -1:255 29 0] [0x2 2 1 [19 0] [12 4]] (REQUEST)
s 0.001869489 _4_ RTR  --- 0 AODV 48 [0 ffffffff c 800] ------- [4:255 -1:255 29 0] [0x2 2 1 [19 0] [12 4]] (REQUEST)
s 0.001930166 _46_ RTR  --- 0 AODV 48 [0 ffffffff c 800] ------- [46:255 -1:255 29 0] [0x2 2 1 [19 0] [12 4]] (REQUEST)
s 0.002126810 _17_ RTR  --- 0 AODV 48 [0 ffffffff c 800] ------- [17:255 -1:255 29 0] [0x2 2 1 [19 0] [12 4]] (REQUEST)
r 0.002539722 _49_ MAC  --- 0 AODV 48 [0 ffffffff b 800] ------- [11:255 -1:255 29 0] [0x2 2 1 [19 0] [12 4]] (REQUEST)
r 0.002539731 _31_ MAC  --- 0 AODV 48 [0 ffffffff b 800] ------- [11:255 -1:255 29 0] [0x2 2 1 [19 0] [12 4]] (REQUEST)
r 0.002539734 _44_ MAC  --- 0 AODV 48 [0 ffffffff b 800] ------- [11:255 -1:255 29 0] [0x2 2 1 [19 0] [12 4]] (REQUEST)
r 0.002539748 _25_ MAC  --- 0 AODV 48 [0 ffffffff b 800] ------- [11:255 -1:255 29 0] [0x2 2 1 [19 0] [12 4]] (REQUEST)
r 0.002539821 _21_ MAC  --- 0 AODV 48 [0 ffffffff b 800] ------- [11:255 -1:255 29 0] [0x2 2 1 [19 0] [12 4]] (REQUEST)
r 0.002539866 _5_ MAC  --- 0 AODV 48 [0 ffffffff b 800] ------- [11:255 -1:255 29 0] [0x2 2 1 [19 0] [12 4]] (REQUEST)
r 0.002539866 _14_ MAC  --- 0 AODV 48 [0 ffffffff b 800] ------- [11:255 -1:255 29 0] [0x2 2 1 [19 0] [12 4]] (REQUEST)
r 0.002539917 _1_ MAC  --- 0 AODV 48 [0 ffffffff b 800] ------- [11:255 -1:255 29 0] [0x2 2 1 [19 0] [12 4]] (REQUEST)
r 0.002539923 _45_ MAC  --- 0 AODV 48 [0 ffffffff b 800] ------- [11:255 -1:255 29 0] [0x2 2 1 [19 0] [12 4]] (REQUEST)
r 0.002539930 _15_ MAC  --- 0 AODV 48 [0 ffffffff b 800] ------- [11:255 -1:255 29 0] [0x2 2 1 [19 0] [12 4]] (REQUEST)
r 0.002539953 _36_ MAC  --- 0 AODV 48 [0 ffffffff b 800] ------- [11:255 -1:255 29 0] [0x2 2 1 [19 0] [12 4]] (REQUEST)
r 0.002539964 _13_ MAC  --- 0 AODV 48 [0 ffffffff b 800] ------- [11:255 -1:255 29 0] [0x2 2 1 [19 0] [12 4]] (REQUEST)
r 0.002540009 _3_ MAC  --- 0 AODV 48 [0 ffffffff b 800] ------- [11:255 -1:255 29 0] [0x2 2 1 [19 0] [12 4]] (REQUEST)
r 0.002540011 _48_ MAC  --- 0 AODV 48 [0 ffffffff b 800] ------- [11:255 -1:255 29 0] [0x2 2 1 [19 0] [12 4]] (REQUEST)
r 0.002540015 _26_ MAC  --- 0 AODV 48 [0 ffffffff b 800] ------- [11:255 -1:255 29 0] [0x2 2 1 [19 0] [12 4]] (REQUEST)
r 0.002540031 _43_ MAC  --- 0 AODV 48 [0 ffffffff b 800] ------- [11:255 -1:255 29 0] [0x2 2 1 [19 0] [12 4]] (REQUEST)
r 0.002540069 _17_ MAC  --- 0 AODV 48 [0 ffffffff b 800] ------- [11:255 -1:255 29 0] [0x2 2 1 [19 0] [12 4]] (REQUEST)
r 0.002540097 _12_ MAC  --- 0 AODV 48 [0 ffffffff b 800] ------- [11:255 -1:255 29 0] [0x2 2 1 [19 0] [12 4]] (REQUEST)
r 0.002540122 _20_ MAC  --- 0 AODV 48 [0 ffffffff b 800] ------- [11:255 -1:255 29 0] [0x2 2 1 [19 0] [12 4]] (REQUEST)
r 0.002540135 _6_ MAC  --- 0 AODV 48 [0 ffffffff b 800] ------- [11:255 -1:255 29 0] [0x2 2 1 [19 0] [12 4]] (REQUEST)
r 0.002540139 _39_ MAC  --- 0 AODV 48 [0 ffffffff b 800] ------- [11:255 -1:255 29 0] [0x2 2 1 [19 0] [12 4]] (REQUEST)
r 0.002540156 _46_ MAC  --- 0 AODV 48 [0 ffffffff b 800] ------- [11:255 -1:255 29 0] [0x2 2 1 [19 0] [12 4]] (REQUEST)
r 0.002540188 _16_ MAC  --- 0 AODV 48 [0 ffffffff b 800] ------- [11:255 -1:255 29 0] [0x2 2 1 [19 0] [12 4]] (REQUEST)
r 0.002540208 _37_ MAC  --- 0 AODV 48 [0 ffffffff b 800] ------- [11:255 -1:255 29 0] [0x2 2 1 [19 0] [12 4]] (REQUEST)
r 0.002540212 _10_ MAC  --- 0 AODV 48 [0 ffffffff b 800] ------- [11:255 -1:255 29 0] [0x2 2 1 [19 0] [12 4]] (REQUEST)
r 0.002540219 _35_ MAC  --- 0 AODV 48 [0 ffffffff b 800] ------- [11:255 -1:255 29 0] [0x2 2 1 [19 0] [12 4]] (REQUEST)
r 0.002540239 _24_ MAC  --- 0 AODV 48 [0 ffffffff b 800] ------- [11:255 -1:255 29 0] [0x2 2 1 [19 0] [12 4]] (REQUEST)
r 0.002540245 _18_ MAC  --- 0 AODV 48 [0 ffffffff b 800] ------- [11:255 -1:255 29 0] [0x2 2 1 [19 0] [12 4]] (REQUEST)
r 0.002540266 _27_ MAC  --- 0 AODV 48 [0 ffffffff b 800] ------- [11:255 -1:255 29 0] [0x2 2 1 [19 0] [12 4]] (REQUEST)
r 0.002540274 _32_ MAC  --- 0 AODV 48 [0 ffffffff b 800] ------- [11:255 -1:255 29 0] [0x2 2 1 [19 0] [12 4]] (REQUEST)
r 0.002540287 _28_ MAC  --- 0 AODV 48 [0 ffffffff b 800] ------- [11:255 -1:255 29 0] [0x2 2 1 [19 0] [12 4]] (REQUEST)
r 0.002540318 _0_ MAC  --- 0 AODV 48 [0 ffffffff b 800] ------- [11:255 -1:255 29 0] [0x2 2 1 [19 0] [12 4]] (REQUEST)
r 0.002540346 _4_ MAC  --- 0 AODV 48 [0 ffffffff b 800] ------- [11:255 -1:255 29 0] [0x2 2 1 [19 0] [12 4]] (REQUEST)
r 0.002564722 _49_ RTR  --- 0 AODV 48 [0 ffffffff b 800] ------- [11:255 -1:255 29 0] [0x2 2 1 [19 0] [12 4]] (REQUEST)
r 0.002564731 _31_ RTR  --- 0 AODV 48 [0 ffffffff b 800] ------- [11:255 -1:255 29 0] [0x2 2 1 [19 0] [12 4]] (REQUEST)
r 0.002564734 _44_ RTR  --- 0 AODV 48 [0 ffffffff b 800] ------- [11:255 -1:255 29 0] [0x2 2 1 [19 0] [12 4]] (REQUEST)
r 0.002564748 _25_ RTR  --- 0 AODV 48 [0 ffffffff b 800] ------- [11:255 -1:255 29 0] [0x2 2 1 [19 0] [12 4]] (REQUEST)
r 0.002564821 _21_ RTR  --- 0 AODV 48 [0 ffffffff b 800] ------- [11:255 -1:255 29 0] [0x2 2 1 [19 0] [12 4]] (REQUEST)
r 0.002564866 _5_ RTR  --- 0 AODV 48 [0 ffffffff b 800] ------- [11:255 -1:255 29 0] [0x2 2 1 [19 0] [12 4]] (REQUEST)
r 0.002564866 _14_ RTR  --- 0 AODV 48 [0 ffffffff b 800] ------- [11:255 -1:255 29 0] [0x2 2 1 [19 0] [12 4]] (REQUEST)
r 0.002564917 _1_ RTR  --- 0 AODV 48 [0 ffffffff b 800] ------- [11:255 -1:255 29 0] [0x2 2 1 [19 0] [12 4]] (REQUEST)
r 0.002564923 _45_ RTR  --- 0 AODV 48 [0 ffffffff b 800] ------- [11:255 -1:255 29 0] [0x2 2 1 [19 0] [12 4]] (REQUEST)
r 0.002564930 _15_ RTR  --- 0 AODV 48 [0 ffffffff b 800] ------- [11:255 -1:255 29 0] [0x2 2 1 [19 0] [12 4]] (REQUEST)
r 0.002564953 _36_ RTR  --- 0 AODV 48 [0 ffffffff b 800] ------- [11:255 -1:255 29 0] [0x2 2 1 [19 0] [12 4]] (REQUEST)
r 0.002564964 _13_ RTR  --- 0 AODV 48 [0 ffffffff b 800] ------- [11:255 -1:255 29 0] [0x2 2 1 [19 0] [12 4]] (REQUEST)
r 0.002565009 _3_ RTR  --- 0 AODV 48 [0 ffffffff b 800] ------- [11:255 -1:255 29 0] [0x2 2 1 [19 0] [12 4]] (REQUEST)
r 0.002565011 _48_ RTR  --- 0 AODV 48 [0 ffffffff b 800] ------- [11:255 -1:255 29 0] [0x2 2 1 [19 0] [12 4]] (REQUEST)
r 0.002565015 _26_ RTR  --- 0 AODV 48 [0 ffffffff b 800] ------- [11:255 -1:255 29 0] [0x2 2 1 [19 0] [12 4]] (REQUEST)
r 0.002565031 _43_ RTR  --- 0 AODV 48 [0 ffffffff b 800] ------- [11:255 -1:255 29 0] [0x2 2 1 [19 0] [12 4]] (REQUEST)
r 0.002565069 _17_ RTR  --- 0 AODV 48 [0 ffffffff b 800] ------- [11:255 -1:255 29 0] [0x2 2 1 [19 0] [12 4]] (REQUEST)
r 0.002565097 _12_ RTR  --- 0 AODV 48 [0 ffffffff b 800] ------- [11:255 -1:255 29 0] [0x2 2 1 [19 0] [12 4]] (REQUEST)
r 0.002565122 _20_ RTR  --- 0 AODV 48 [0 ffffffff b 800] ------- [11:255 -1:255 29 0] [0x2 2 1 [19 0] [12 4]] (REQUEST)
r 0.002565135 _6_ RTR  --- 0 AODV 48 [0 ffffffff b 800] ------- [11:255 -1:255 29 0] [0x2 2 1 [19 0] [12 4]] (REQUEST)
r 0.002565139 _39_ RTR  --- 0 AODV 48 [0 ffffffff b 800] ------- [11:255 -1:255 29 0] [0x2 2 1 [19 0] [12 4]] (REQUEST)
r 0.002565156 _46_ RTR  --- 0 AODV 48 [0 ffffffff b 800] ------- [11:255 -1:255 29 0] [0x2 2 1 [19 0] [12 4]] (REQUEST)
r 0.002565188 _16_ RTR  --- 0 AODV 48 [0 ffffffff b 800] ------- [11:255 -1:255 29 0] [0x2 2 1 [19 0] [12 4]] (REQUEST)
r 0.002565208 _37_ RTR  --- 0 AODV 48 [0 ffffffff b 800] ------- [11:255 -1:255 29 0] [0x2 2 1 [19 0] [12 4]] (REQUEST)
r 0.002565212 _10_ RTR  --- 0 AODV 48 [0 ffffffff b 800] ------- [11:255 -1:255 29 0] [0x2 2 1 [19 0] [12 4]] (REQUEST)
r 0.002565219 _35_ RTR  --- 0 AODV 48 [0 ffffffff b 800] ------- [11:255 -1:255 29 0] [0x2 2 1 [19 0] [12 4]] (REQUEST)
r 0.002565239 _24_ RTR  --- 0 AODV 48 [0 ffffffff b 800] ------- [11:255 -1:255 29 0] [0x2 2 1 [19 0] [12 4]] (REQUEST)
r 0.002565245 _18_ RTR  --- 0 AODV 48 [0 ffffffff b 800] ------- [11:255 -1:255 29 0] [0x2 2 1 [19 0] [12 4]] (REQUEST)
r 0.002565266 _27_ RTR  --- 0 AODV 48 [0 ffffffff b 800] ------- [11:255 -1:255 29 0] [0x2 2 1 [19 0] [12 4]] (REQUEST)
r 0.002565274 _32_ RTR  --- 0 AODV 48 [0 ffffffff b 800] ------- [11:255 -1:255 29 0] [0x2 2 1 [19 0] [12 4]] (REQUEST)
r 0.002565287 _28_ RTR  --- 0 AODV 48 [0 ffffffff b 800] ------- [11:255 -1:255 29 0] [0x2 2 1 [19 0] [12 4]] (REQUEST)
r 0.002565318 _0_ RTR  --- 0 AODV 48 [0 ffffffff b 800] ------- [11:255 -1:255 29 0] [0x2 2 1 [19 0] [12 4]] (REQUEST)
r 0.002565346 _4_ RTR  --- 0 AODV 48 [0 ffffffff b 800] ------- [11:255 -1:255 29 0] [0x2 2 1 [19 0] [12 4]] (REQUEST)
s 0.002610156 _46_ MAC  --- 0 AODV 106 [0 ffffffff 2e 800] ------- [46:255 -1:255 29 0] [0x2 2 1 [19 0] [12 4]] (REQUEST)
s 0.002629992 _20_ RTR  --- 0 AODV 48 [0 ffffffff c 800] ------- [20:255 -1:255 29 0] [0x2 2 1 [19 0] [12 4]] (REQUEST)
s 0.002736822 _44_ RTR  --- 0 AODV 48 [0 ffffffff c 800] ------- [44:255 -1:255 29 0] [0x2 2 1 [19 0] [12 4]] (REQUEST)
s 0.003334390 _0_ RTR  --- 0 AODV 48 [0 ffffffff c 800] ------- [0:255 -1:255 29 0] [0x2 2 1 [19 0] [12 4]] (REQUEST)
r 0.003458357 _27_ MAC  --- 0 AODV 48 [0 ffffffff 2e 800] ------- [46:255 -1:255 29 0] [0x2 2 1 [19 0] [12 4]] (REQUEST)
r 0.003458383 _2_ MAC  --- 0 AODV 48 [0 ffffffff 2e 800] ------- [46:255 -1:255 29 0] [0x2 2 1 [19 0] [12 4]] (REQUEST)
r 0.003458397 _3_ MAC  --- 0 AODV 48 [0 ffffffff 2e 800] ------- [46:255 -1:255 29 0] [0x2 2 1 [19 0] [12 4]] (REQUEST)
r 0.003458413 _28_ MAC  --- 0 AODV 48 [0 ffffffff 2e 800] ------- [46:255 -1:255 29 0] [0x2 2 1 [19 0] [12 4]] (REQUEST)
r 0.003458418 _36_ MAC  --- 0 AODV 48 [0 ffffffff 2e 800] ------- [46:255 -1:255 29 0] [0x2 2 1 [19 0] [12 4]] (REQUEST)
r 0.003458429 _20_ MAC  --- 0 AODV 48 [0 ffffffff 2e 800] ------- [46:255 -1:255 29 0] [0x2 2 1 [19 0] [12 4]] (REQUEST)
r 0.003458523 _41_ MAC  --- 0 AODV 48 [0 ffffffff 2e 800] ------- [46:255 -1:255 29 0] [0x2 2 1 [19 0] [12 4]] (REQUEST)
r 0.003458548 _24_ MAC  --- 0 AODV 48 [0 ffffffff 2e 800] ------- [46:255 -1:255 29 0] [0x2 2 1 [19 0] [12 4]] (REQUEST)
r 0.003458551 _22_ MAC  --- 0 AODV 48 [0 ffffffff 2e 800] ------- [46:255 -1:255 29 0] [0x2 2 1 [19 0] [12 4]] (REQUEST)
r 0.003458583 _31_ MAC  --- 0 AODV 48 [0 ffffffff 2e 800] ------- [46:255 -1:255 29 0] [0x2 2 1 [19 0] [12 4]] (REQUEST)
r 0.003458600 _45_ MAC  --- 0 AODV 48 [0 ffffffff 2e 800] ------- [46:255 -1:255 29 0] [0x2 2 1 [19 0] [12 4]] (REQUEST)
r 0.003458640 _1_ MAC  --- 0 AODV 48 [0 ffffffff 2e 800] ------- [46:255 -1:255 29 0] [0x2 2 1 [19 0] [12 4]] (REQUEST)
r 0.003458682 _49_ MAC  --- 0 AODV 48 [0 ffffffff 2e 800] ------- [46:255 -1:255 29 0] [0x2 2 1 [19 0] [12 4]] (REQUEST)
r 0.003458682 _39_ MAC  --- 0 AODV 48 [0 ffffffff 2e 800] ------- [46:255 -1:255 29 0] [0x2 2 1 [19 0] [12 4]] (REQUEST)
r 0.003458688 _29_ MAC  --- 0 AODV 48 [0 ffffffff 2e 800] ------- [46:255 -1:255 29 0] [0x2 2 1 [19 0] [12 4]] (REQUEST)
r 0.003458736 _6_ MAC  --- 0 AODV 48 [0 ffffffff 2e 800] ------- [46:255 -1:255 29 0] [0x2 2 1 [19 0] [12 4]] (REQUEST)
r 0.003458786 _47_ MAC  --- 0 AODV 48 [0 ffffffff 2e 800] ------- [46:255 -1:255 29 0] [0x2 2 1 [19 0] [12 4]] (REQUEST)
r 0.003458790 _5_ MAC  --- 0 AODV 48 [0 ffffffff 2e 800] ------- [46:255 -1:255 29 0] [0x2 2 1 [19 0] [12 4]] (REQUEST)
r 0.003458791 _11_ MAC  --- 0 AODV 48 [0 ffffffff 2e 800] ------- [46:255 -1:255 29 0] [0x2 2 1 [19 0] [12 4]] (REQUEST)
r 0.003458811 _8_ MAC  --- 0 AODV 48 [0 ffffffff 2e 800] ------- [46:255 -1:255 29 0] [0x2 2 1 [19 0] [12 4]] (REQUEST)
r 0.003458817 _7_ MAC  --- 0 AODV 48 [0 ffffffff 2e 800] ------- [46:255 -1:255 29 0] [0x2 2 1 [19 0] [12 4]] (REQUEST)
r 0.003458822 _0_ MAC  --- 0 AODV 48 [0 ffffffff 2e 800] ------- [46:255 -1:255 29 0] [0x2 2 1 [19 0] [12 4]] (REQUEST)
r 0.003458842 _21_ MAC  --- 0 AODV 48 [0 ffffffff 2e 800] ------- [46:255 -1:255 29 0] [0x2 2 1 [19 0] [12 4]] (REQUEST)
r 0.003458915 _9_ MAC  --- 0 AODV 48 [0 ffffffff 2e 800] ------- [46:255 -1:255 29 0] [0x2 2 1 [19 0] [12 4]] (REQUEST)
r 0.003458933 _12_ MAC  --- 0 AODV 48 [0 ffffffff 2e 800] ------- [46:255 -1:255 29 0] [0x2 2 1 [19 0] [12 4]] (REQUEST)
r 0.003458942 _44_ MAC  --- 0 AODV 48 [0 ffffffff 2e 800] ------- [46:255 -1:255 29 0] [0x2 2 1 [19 0] [12 4]] (REQUEST)
r 0.003458954 _25_ MAC  --- 0 AODV 48 [0 ffffffff 2e 800] ------- [46:255 -1:255 29 0] [0x2 2 1 [19 0] [12 4]] (REQUEST)
r 0.003458976 _32_ MAC  --- 0 AODV 48 [0 ffffffff 2e 800] ------- [46:255 -1:255 29 0] [0x2 2 1 [19 0] [12 4]] (REQUEST)
r 0.003483357 _27_ RTR  --- 0 AODV 48 [0 ffffffff 2e 800] ------- [46:255 -1:255 29 0] [0x2 2 1 [19 0] [12 4]] (REQUEST)
r 0.003483383 _2_ RTR  --- 0 AODV 48 [0 ffffffff 2e 800] ------- [46:255 -1:255 29 0] [0x2 2 1 [19 0] [12 4]] (REQUEST)
r 0.003483397 _3_ RTR  --- 0 AODV 48 [0 ffffffff 2e 800] ------- [46:255 -1:255 29 0] [0x2 2 1 [19 0] [12 4]] (REQUEST)
r 0.003483413 _28_ RTR  --- 0 AODV 48 [0 ffffffff 2e 800] ------- [46:255 -1:255 29 0] [0x2 2 1 [19 0] [12 4]] (REQUEST)
r 0.003483418 _36_ RTR  --- 0 AODV 48 [0 ffffffff 2e 800] ------- [46:255 -1:255 29 0] [0x2 2 1 [19 0] [12 4]] (REQUEST)
r 0.003483429 _20_ RTR  --- 0 AODV 48 [0 ffffffff 2e 800] ------- [46:255 -1:255 29 0] [0x2 2 1 [19 0] [12 4]] (REQUEST)
r 0.003483523 _41_ RTR  --- 0 AODV 48 [0 ffffffff 2e 800] ------- [46:255 -1:255 29 0] [0x2 2 1 [19 0] [12 4]] (REQUEST)
r 0.003483548 _24_ RTR  --- 0 AODV 48 [0 ffffffff 2e 800] ------- [46:255 -1:255 29 0] [0x2 2 1 [19 0] [12 4]] (REQUEST)
r 0.003483551 _22_ RTR  --- 0 AODV 48 [0 ffffffff 2e 800] ------- [46:255 -1:255 29 0] [0x2 2 1 [19 0] [12 4]] (REQUEST)
r 0.003483583 _31_ RTR  --- 0 AODV 48 [0 ffffffff 2e 800] ------- [46:255 -1:255 29 0] [0x2 2 1 [19 0] [12 4]] (REQUEST)
r 0.003483600 _45_ RTR  --- 0 AODV 48 [0 ffffffff 2e 800] ------- [46:255 -1:255 29 0] [0x2 2 1 [19 0] [12 4]] (REQUEST)
r 0.003483640 _1_ RTR  --- 0 AODV 48 [0 ffffffff 2e 800] ------- [46:255 -1:255 29 0] [0x2 2 1 [19 0] [12 4]] (REQUEST)
r 0.003483682 _49_ RTR  --- 0 AODV 48 [0 ffffffff 2e 800] ------- [46:255 -1:255 29 0] [0x2 2 1 [19 0] [12 4]] (REQUEST)
r 0.003483682 _39_ RTR  --- 0 AODV 48 [0 ffffffff 2e 800] ------- [46:255 -1:255 29 0] [0x2 2 1 [19 0] [12 4]] (REQUEST)
r 0.003483688 _29_ RTR  --- 0 AODV 48 [0 ffffffff 2e 800] ------- [46:255 -1:255 29 0] [0x2 2 1 [19 0] [12 4]] (REQUEST)
r 0.003483736 _6_ RTR  --- 0 AODV 48 [0 ffffffff 2e 800] ------- [46:255 -1:255 29 0] [0x2 2 1 [19 0] [12 4]] (REQUEST)
r 0.003483786 _47_ RTR  --- 0 AODV 48 [0 ffffffff 2e 800] ------- [46:255 -1:255 29 0] [0x2 2 1 [19 0] [12 4]] (REQUEST)
r 0.003483790 _5_ RTR  --- 0 AODV 48 [0 ffffffff 2e 800] ------- [46:255 -1:255 29 0] [0x2 2 1 [19 0] [12 4]] (REQUEST)
r 0.003483791 _11_ RTR  --- 0 AODV 48 [0 ffffffff 2e 800] ------- [46:255 -1:255 29 0] [0x2 2 1 [19 0] [12 4]] (REQUEST)
r 0.003483811 _8_ RTR  --- 0 AODV 48 [0 ffffffff 2e 800] ------- [46:255 -1:255 29 0] [0x2 2 1 [19 0] [12 4]] (REQUEST)
r 0.003483817 _7_ RTR  --- 0 AODV 48 [0 ffffffff 2e 800] ------- [46:255 -1:255 29 0] [0x2 2 1 [19 0] [12 4]] (REQUEST)
r 0.003483822 _0_ RTR  --- 0 AODV 48 [0 ffffffff 2e 800] ------- [46:255 -1:255 29 0] [0x2 2 1 [19 0] [12 4]] (REQUEST)
r 0.003483842 _21_ RTR  --- 0 AODV 48 [0 ffffffff 2e 800] ------- [46:255 -1:255 29 0] [0x2 2 1 [19 0] [12 4]] (REQUEST)
r 0.003483915 _9_ RTR  --- 0 AODV 48 [0 ffffffff 2e 800] ------- [46:255 -1:255 29 0] [0x2 2 1 [19 0] [12 4]] (REQUEST)
r 0.003483933 _12_ RTR  --- 0 AODV 48 [0 ffffffff 2e 800] ------- [46:255 -1:255 29 0] [0x2 2 1 [19 0] [12 4]] (REQUEST)
r 0.003483942 _44_ RTR  --- 0 AODV 48 [0 ffffffff 2e 800] ------- [46:255 -1:255 29 0] [0x2 2 1 [19 0] [12 4]] (REQUEST)
r 0.003483954 _25_ RTR  --- 0 AODV 48 [0 ffffffff 2e 800] ------- [46:255 -1:255 29 0] [0x2 2 1 [19 0] [12 4]] (REQUEST)
r 0.003483976 _32_ RTR  --- 0 AODV 48 [0 ffffffff 2e 800] ------- [46:255 -1:255 29 0] [0x2 2 1 [19 0] [12 4]] (REQUEST)
s 0.003568822 _0_ MAC  --- 0 AODV 106 [0 ffffffff 0 800] ------- [0:255 -1:255 29 0] [0x2 2 1 [19 0] [12 4]] (REQUEST)
s 0.003657204 _35_ RTR  --- 0 AODV 48 [0 ffffffff b 800] ------- [35:255 -1:255 28 0] [0x2 3 1 [19 0] [12 4]] (REQUEST)
s 0.004079253 _25_ RTR  --- 0 AODV 48 [0 ffffffff c 800] ------- [25:255 -1:255 29 0] [0x2 2 1 [19 0] [12 4]] (REQUEST)
s 0.004117929 _39_ RTR  --- 0 AODV 48 [0 ffffffff c 800] ------- [39:255 -1:255 29 0] [0x2 2 1 [19 0] [12 4]] (REQUEST)
r 0.004417009 _39_ MAC  --- 0 AODV 48 [0 ffffffff 0 800] ------- [0:255 -1:255 29 0] [0x2 2 1 [19 0] [12 4]] (REQUEST)
r 0.004417088 _4_ MAC  --- 0 AODV 48 [0 ffffffff 0 800] ------- [0:255 -1:255 29 0] [0x2 2 1 [19 0] [12 4]] (REQUEST)
r 0.004417195 _12_ MAC  --- 0 AODV 48 [0 ffffffff 0 800] ------- [0:255 -1:255 29 0] [0x2 2 1 [19 0] [12 4]] (REQUEST)
r 0.004417217 _20_ MAC  --- 0 AODV 48 [0 ffffffff 0 800] ------- [0:255 -1:255 29 0] [0x2 2 1 [19 0] [12 4]] (REQUEST)
r 0.004417225 _1_ MAC  --- 0 AODV 48 [0 ffffffff 0 800] ------- [0:255 -1:255 29 0] [0x2 2 1 [19 0] [12 4]] (REQUEST)
r 0.004417336 _36_ MAC  --- 0 AODV 48 [0 ffffffff 0 800] ------- [0:255 -1:255 29 0] [0x2 2 1 [19 0] [12 4]] (REQUEST)
r 0.004417352 _27_ MAC  --- 0 AODV 48 [0 ffffffff 0 800] ------- [0:255 -1:255 29 0] [0x2 2 1 [19 0] [12 4]] (REQUEST)
r 0.004417389 _21_ MAC  --- 0 AODV 48 [0 ffffffff 0 800] ------- [0:255 -1:255 29 0] [0x2 2 1 [19 0] [12 4]] (REQUEST)
r 0.004417419 _49_ MAC  --- 0 AODV 48 [0 ffffffff 0 800] ------- [0:255 -1:255 29 0] [0x2 2 1 [19 0] [12 4]] (REQUEST)
r 0.004417488 _46_ MAC  --- 0 AODV 48 [0 ffffffff 0 800] ------- [0:255 -1:255 29 0] [0x2 2 1 [19 0] [12 4]] (REQUEST)
r 0.004417538 _2_ MAC  --- 0 AODV 48 [0 ffffffff 0 800] ------- [0:255 -1:255 29 0] [0x2 2 1 [19 0] [12 4]] (REQUEST)
r 0.004417540 _31_ MAC  --- 0 AODV 48 [0 ffffffff 0 800] ------- [0:255 -1:255 29 0] [0x2 2 1 [19 0] [12 4]] (REQUEST)
r 0.004417547 _13_ MAC  --- 0 AODV 48 [0 ffffffff 0 800] ------- [0:255 -1:255 29 0] [0x2 2 1 [19 0] [12 4]] (REQUEST)
r 0.004417592 _25_ MAC  --- 0 AODV 48 [0 ffffffff 0 800] ------- [0:255 -1:255 29 0] [0x2 2 1 [19 0] [12 4]] (REQUEST)
r 0.004417619 _11_ MAC  --- 0 AODV 48 [0 ffffffff 0 800] ------- [0:255 -1:255 29 0] [0x2 2 1 [19 0] [12 4]] (REQUEST)
r 0.004417632 _3_ MAC  --- 0 AODV 48 [0 ffffffff 0 800] ------- [0:255 -1:255 29 0] [0x2 2 1 [19 0] [12 4]] (REQUEST)
s 0.004438898 _18_ RTR  --- 0 AODV 48 [0 ffffffff b 800] ------- [18:255 -1:255 28 0] [0x2 3 1 [19 0] [12 4]] (REQUEST)
r 0.004442009 _39_ RTR  --- 0 AODV 48 [0 ffffffff 0 800] ------- [0:255 -1:255 29 0] [0x2 2 1 [19 0] [12 4]] (REQUEST)
r 0.004442088 _4_ RTR  --- 0 AODV 48 [0 ffffffff 0 800] ------- [0:255 -1:255 29 0] [0x2 2 1 [19 0] [12 4]] (REQUEST)
r 0.004442195 _12_ RTR  --- 0 AODV 48 [0 ffffffff 0 800] ------- [0:255 -1:255 29 0] [0x2 2 1 [19 0] [12 4]] (REQUEST)
r 0.004442217 _20_ RTR  --- 0 AODV 48 [0 ffffffff 0 800] ------- [0:255 -1:255 29 0] [0x2 2 1 [19 0] [12 4]] (REQUEST)
r 0.004442225 _1_ RTR  --- 0 AODV 48 [0 ffffffff 0 800] ------- [0:255 -1:255 29 0] [0x2 2 1 [19 0] [12 4]] (REQUEST)
r 0.004442336 _36_ RTR  --- 0 AODV 48 [0 ffffffff 0 800] ------- [0:255 -1:255 29 0] [0x2 2 1 [19 0] [12 4]] (REQUEST)
r 0.004442352 _27_ RTR  --- 0 AODV 48 [0 ffffffff 0 800] ------- [0:255 -1:255 29 0] [0x2 2 1 [19 0] [12 4]] (REQUEST)
r 0.004442389 _21_ RTR  --- 0 AODV 48 [0 ffffffff 0 800] ------- [0:255 -1:255 29 0] [0x2 2 1 [19 0] [12 4]] (REQUEST)
r 0.004442419 _49_ RTR  --- 0 AODV 48 [0 ffffffff 0 800] ------- [0:255 -1:255 29 0] [0x2 2 1 [19 0] [12 4]] (REQUEST)
r 0.004442488 _46_ RTR  --- 0 AODV 48 [0 ffffffff 0 800] ------- [0:255 -1:255 29 0] [0x2 2 1 [19 0] [12 4]] (REQUEST)
r 0.004442538 _2_ RTR  --- 0 AODV 48 [0 ffffffff 0 800] ------- [0:255 -1:255 29 0] [0x2 2 1 [19 0] [12 4]] (REQUEST)
r 0.004442540 _31_ RTR  --- 0 AODV 48 [0 ffffffff 0 800] ------- [0:255 -1:255 29 0] [0x2 2 1 [19 0] [12 4]] (REQUEST)
r 0.004442547 _13_ RTR  --- 0 AODV 48 [0 ffffffff 0 800] ------- [0:255 -1:255 29 0] [0x2 2 1 [19 0] [12 4]] (REQUEST)
r 0.004442592 _25_ RTR  --- 0 AODV 48 [0 ffffffff 0 800] ------- [0:255 -1:255 29 0] [0x2 2 1 [19 0] [12 4]] (REQUEST)
r 0.004442619 _11_ RTR  --- 0 AODV 48 [0 ffffffff 0 800] ------- [0:255 -1:255 29 0] [0x2 2 1 [19 0] [12 4]] (REQUEST)
r 0.004442632 _3_ RTR  --- 0 AODV 48 [0 ffffffff 0 800] ------- [0:255 -1:255 29 0] [0x2 2 1 [19 0] [12 4]] (REQUEST)
s 0.004607217 _20_ MAC  --- 0 AODV 106 [0 ffffffff 14 800] ------- [20:255 -1:255 29 0] [0x2 2 1 [19 0] [12 4]] (REQUEST)
s 0.004714586 _22_ RTR  --- 0 AODV 48 [0 ffffffff 2e 800] ------- [22:255 -1:255 28 0] [0x2 3 1 [19 0] [12 4]] (REQUEST)
s 0.004736606 _48_ RTR  --- 0 AODV 48 [0 ffffffff b 800] ------- [48:255 -1:255 28 0] [0x2 3 1 [19 0] [12 4]] (REQUEST)
s 0.004977271 _26_ RTR  --- 0 AODV 48 [0 ffffffff b 800] ------- [26:255 -1:255 28 0] [0x2 3 1 [19 0] [12 4]] (REQUEST)
s 0.005225302 _14_ RTR  --- 0 AODV 48 [0 ffffffff c 800] ------- [14:255 -1:255 29 0] [0x2 2 1 [19 0] [12 4]] (REQUEST)
s 0.005400014 _21_ RTR  --- 0 AODV 48 [0 ffffffff c 800] ------- [21:255 -1:255 29 0] [0x2 2 1 [19 0] [12 4]] (REQUEST)
r 0.005455398 _36_ MAC  --- 0 AODV 48 [0 ffffffff 14 800] ------- [20:255 -1:255 29 0] [0x2 2 1 [19 0] [12 4]] (REQUEST)
r 0.005455413 _27_ MAC  --- 0 AODV 48 [0 ffffffff 14 800] ------- [20:255 -1:255 29 0] [0x2 2 1 [19 0] [12 4]] (REQUEST)
r 0.005455475 _39_ MAC  --- 0 AODV 48 [0 ffffffff 14 800] ------- [20:255 -1:255 29 0] [0x2 2 1 [19 0] [12 4]] (REQUEST)
r 0.005455490 _46_ MAC  --- 0 AODV 48 [0 ffffffff 14 800] ------- [20:255 -1:255 29 0] [0x2 2 1 [19 0] [12 4]] (REQUEST)
r 0.005455507 _1_ MAC  --- 0 AODV 48 [0 ffffffff 14 800] ------- [20:255 -1:255 29 0] [0x2 2 1 [19 0] [12 4]] (REQUEST)
r 0.005455597 _2_ MAC  --- 0 AODV 48 [0 ffffffff 14 800] ------- [20:255 -1:255 29 0] [0x2 2 1 [19 0] [12 4]] (REQUEST)
r 0.005455612 _0_ MAC  --- 0 AODV 48 [0 ffffffff 14 800] ------- [20:255 -1:255 29 0] [0x2 2 1 [19 0] [12 4]] (REQUEST)
r 0.005455641 _49_ MAC  --- 0 AODV 48 [0 ffffffff 14 800] ------- [20:255 -1:255 29 0] [0x2 2 1 [19 0] [12 4]] (REQUEST)
r 0.005455647 _3_ MAC  --- 0 AODV 48 [0 ffffffff 14 800] ------- [20:255 -1:255 29 0] [0x2 2 1 [19 0] [12 4]] (REQUEST)
r 0.005455654 _31_ MAC  --- 0 AODV 48 [0 ffffffff 14 800] ------- [20:255 -1:255 29 0] [0x2 2 1 [19 0] [12 4]] (REQUEST)
r 0.005455744 _21_ MAC  --- 0 AODV 48 [0 ffffffff 14 800] ------- [20:255 -1:255 29 0] [0x2 2 1 [19 0] [12 4]] (REQUEST)
r 0.005455748 _28_ MAC  --- 0 AODV 48 [0 ffffffff 14 800] ------- [20:255 -1:255 29 0] [0x2 2 1 [19 0] [12 4]] (REQUEST)
r 0.005455755 _12_ MAC  --- 0 AODV 48 [0 ffffffff 14 800] ------- [20:255 -1:255 29 0] [0x2 2 1 [19 0] [12 4]] (REQUEST)
r 0.005455787 _41_ MAC  --- 0 AODV 48 [0 ffffffff 14 800] ------- [20:255 -1:255 29 0] [0x2 2 1 [19 0] [12 4]] (REQUEST)
r 0.005455809 _45_ MAC  --- 0 AODV 48 [0 ffffffff 14 800] ------- [20:255 -1:255 29 0] [0x2 2 1 [19 0] [12 4]] (REQUEST)
r 0.005455817 _11_ MAC  --- 0 AODV 48 [0 ffffffff 14 800] ------- [20:255 -1:255 29 0] [0x2 2 1 [19 0] [12 4]] (REQUEST)
r 0.005455827 _4_ MAC  --- 0 AODV 48 [0 ffffffff 14 800] ------- [20:255 -1:255 29 0] [0x2 2 1 [19 0] [12 4]] (REQUEST)
r 0.005455861 _22_ MAC  --- 0 AODV 48 [0 ffffffff 14 800] ------- [20:255 -1:255 29 0] [0x2 2 1 [19 0] [12 4]] (REQUEST)
r 0.005455867 _24_ MAC  --- 0 AODV 48 [0 ffffffff 14 800] ------- [20:255 -1:255 29 0] [0x2 2 1 [19 0] [12 4]] (REQUEST)
r 0.005455908 _25_ MAC  --- 0 AODV 48 [0 ffffffff 14 800] ------- [20:255 -1:255 29 0] [0x2 2 1 [19 0] [12 4]] (REQUEST)
r 0.005455956 _5_ MAC  --- 0 AODV 48 [0 ffffffff 14 800] ------- [20:255 -1:255 29 0] [0x2 2 1 [19 0] [12 4]] (REQUEST)
r 0.005455982 _13_ MAC  --- 0 AODV 48 [0 ffffffff 14 800] ------- [20:255 -1:255 29 0] [0x2 2 1 [19 0] [12 4]] (REQUEST)
r 0.005456003 _6_ MAC  --- 0 AODV 48 [0 ffffffff 14 800] ------- [20:255 -1:255 29 0] [0x2 2 1 [19 0] [12 4]] (REQUEST)
r 0.005456014 _44_ MAC  --- 0 AODV 48 [0 ffffffff 14 800] ------- [20:255 -1:255 29 0] [0x2 2 1 [19 0] [12 4]] (REQUEST)
r 0.005456020 _29_ MAC  --- 0 AODV 48 [0 ffffffff 14 800] ------- [20:255 -1:255 29 0] [0x2 2 1 [19 0] [12 4]] (REQUEST)
r 0.005480398 _36_ RTR  --- 0 AODV 48 [0 ffffffff 14 800] ------- [20:255 -1:255 29 0] [0x2 2 1 [19 0] [12 4]] (REQUEST)
r 0.005480413 _27_ RTR  --- 0 AODV 48 [0 ffffffff 14 800] ------- [20:255 -1:255 29 0] [0x2 2 1 [19 0] [12 4]] (REQUEST)
r 0.005480475 _39_ RTR  --- 0 AODV 48 [0 ffffffff 14 800] ------- [20:255 -1:255 29 0] [0x2 2 1 [19 0] [12 4]] (REQUEST)
r 0.005480490 _46_ RTR  --- 0 AODV 48 [0 ffffffff 14 800] ------- [20:255 -1:255 29 0] [0x2 2 1 [19 0] [12 4]] (REQUEST)
r 0.005480507 _1_ RTR  --- 0 AODV 48 [0 ffffffff 14 800] ------- [20:255 -1:255 29 0] [0x2 2 1 [19 0] [12 4]] (REQUEST)
r 0.005480597 _2_ RTR  --- 0 AODV 48 [0 ffffffff 14 800] ------- [20:255 -1:255 29 0] [0x2 2 1 [19 0] [12 4]] (REQUEST)
r 0.005480612 _0_ RTR  --- 0 AODV 48 [0 ffffffff 14 800] ------- [20:255 -1:255 29 0] [0x2 2 1 [19 0] [12 4]] (REQUEST)
r 0.005480641 _49_ RTR  --- 0 AODV 48 [0 ffffffff 14 800] ------- [20:255 -1:255 29 0] [0x2 2 1 [19 0] [12 4]] (REQUEST)
r 0.005480647 _3_ RTR  --- 0 AODV 48 [0 ffffffff 14 800] ------- [20:255 -1:255 29 0] [0x2 2 1 [19 0] [12 4]] (REQUEST)
r 0.005480654 _31_ RTR  --- 0 AODV 48 [0 ffffffff 14 800] ------- [20:255 -1:255 29 0] [0x2 2 1 [19 0] [12 4]] (REQUEST)
r 0.005480744 _21_ RTR  --- 0 AODV 48 [0 ffffffff 14 800] ------- [20:255 -1:255 29 0] [0x2 2 1 [19 0] [12 4]] (REQUEST)